 *******************************************************************************
 ** Site#:    0         For non-commercial use only    Version 20.173L 64BITS **
 *******************************************************************************
 ** Cite this program as: MOPAC2016, Version: 20.173L, James J. P. Stewart,   **
 ** Stewart Computational Chemistry, web-site: HTTP://OpenMOPAC.net.          **
 *******************************************************************************
 **                                                                           **
 **                                MOPAC2016                                  **
 **                                                                           **
 *******************************************************************************

                              INDO CALCULATION RESULTS

 *******************************************************************************
 *  CALCULATION DONE:                                Wed Oct 11 11:36:48 2023  *
 *  INDO       - The INDO Hamiltonian to be used
 *  WRTCONF =  0.1000 - Print configurations with coefficients greater than cutoff
 *  CIS        - C.I. USES 1 ELECTRON EXCITATIONS ONLY
 *  T=         - A TIME OF 172800.0 SECONDS REQUESTED
 *  DUMP=N     - RESTART FILE WRITTEN EVERY 7200.0 SECONDS REQUESTED
 *******************************************************************************
INDO CIS WRTCONF=0.1
 benzene

   ATOM   CHEMICAL          X               Y               Z
  NUMBER   SYMBOL      (ANGSTROMS)     (ANGSTROMS)     (ANGSTROMS)
 
     1       H          0.00000000      2.48421200      0.00000000   
     2       H          0.00000000     -2.48421200      0.00000000   
     3       H          2.15139000      1.24210600      0.00000000   
     4       H         -2.15139000     -1.24210600      0.00000000   
     5       H         -2.15139000      1.24210600      0.00000000   
     6       H          2.15139000     -1.24210600      0.00000000   
     7       C          0.00000000      1.39679200      0.00000000   
     8       C          0.00000000     -1.39679200      0.00000000   
     9       C          1.20965700      0.69839600      0.00000000   
    10       C         -1.20965700     -0.69839600      0.00000000   
    11       C         -1.20965700      0.69839600      0.00000000   
    12       C          1.20965700     -0.69839600      0.00000000   
 


          CARTESIAN COORDINATES 

    NO.       ATOM           X           Y           Z

     1         H          0.0000      2.4842      0.0000
     2         H          0.0000     -2.4842      0.0000
     3         H          2.1514      1.2421      0.0000
     4         H         -2.1514     -1.2421      0.0000
     5         H         -2.1514      1.2421      0.0000
     6         H          2.1514     -1.2421      0.0000
     7         C          0.0000      1.3968      0.0000
     8         C          0.0000     -1.3968      0.0000
     9         C          1.2097      0.6984      0.0000
    10         C         -1.2097     -0.6984      0.0000
    11         C         -1.2097      0.6984      0.0000
    12         C          1.2097     -0.6984      0.0000

           Empirical Formula: C6 H6  =    12 atoms



      MOLECULAR POINT GROUP   :   D6h 


      RHF CALCULATION, NO. OF DOUBLY OCCUPIED LEVELS = 15

 WARNING: INDO only performs single-point calculations

 Summary of symmetry occupancy in each shell:

 SHELL     
    1   15
    v   15
 TOTAL  30




    ROOT NO.    1           2           3           4           5           6

           -43.49882   -32.89454   -32.89454   -25.17473   -25.17472   -23.50145
  
  
  S  H   1   0.09899     0.23687     0.00000    -0.00000     0.26514     0.24378
  
  S  H   2   0.09899    -0.23687    -0.00000    -0.00000     0.26514     0.24378
  
  S  H   3   0.09899     0.11844    -0.20513     0.22962    -0.13257     0.24378
  
  S  H   4   0.09899    -0.11844     0.20513     0.22962    -0.13257     0.24378
  
  S  H   5   0.09899     0.11843     0.20514    -0.22962    -0.13257     0.24378
  
  S  H   6   0.09899    -0.11843    -0.20514    -0.22962    -0.13257     0.24378
  
  S  C   7   0.36472     0.47753     0.00000    -0.00000     0.35183     0.06934
 PX  C   7   0.00000     0.00000    -0.22170     0.34817     0.00000    -0.00000
 PY  C   7  -0.15442     0.00605     0.00000    -0.00000     0.13426     0.32005
 PZ  C   7   0.00000    -0.00000     0.00000     0.00000     0.00000    -0.00000
  
  S  C   8   0.36472    -0.47753    -0.00000    -0.00000     0.35183     0.06934
 PX  C   8  -0.00000     0.00000    -0.22170    -0.34817    -0.00000     0.00000
 PY  C   8   0.15442     0.00605     0.00000     0.00000    -0.13426    -0.32005
 PZ  C   8   0.00000     0.00000    -0.00000     0.00000     0.00000    -0.00000
  
  S  C   9   0.36472     0.23877    -0.41355     0.30470    -0.17592     0.06934
 PX  C   9  -0.13373    -0.09338    -0.05997     0.01365    -0.20890     0.27717
 PY  C   9  -0.07721     0.16779     0.09338     0.20890     0.22756     0.16002
 PZ  C   9   0.00000    -0.00000     0.00000     0.00000    -0.00000    -0.00000
  
  S  C  10   0.36472    -0.23877     0.41355     0.30470    -0.17592     0.06934
 PX  C  10   0.13373    -0.09338    -0.05997    -0.01365     0.20890    -0.27717
 PY  C  10   0.07721     0.16779     0.09338    -0.20890    -0.22756    -0.16002
 PZ  C  10   0.00000    -0.00000    -0.00000    -0.00000    -0.00000    -0.00000
  
  S  C  11   0.36472     0.23876     0.41356    -0.30469    -0.17592     0.06934
 PX  C  11   0.13373     0.09338    -0.05996     0.01365     0.20890    -0.27717
 PY  C  11  -0.07721     0.16779    -0.09338    -0.20890     0.22756     0.16002
 PZ  C  11  -0.00000     0.00000     0.00000    -0.00000     0.00000    -0.00000
  
  S  C  12   0.36472    -0.23876    -0.41356    -0.30469    -0.17592     0.06934
 PX  C  12  -0.13373     0.09338    -0.05996    -0.01365    -0.20890     0.27717
 PY  C  12   0.07721     0.16779    -0.09338     0.20890    -0.22756    -0.16002
 PZ  C  12   0.00000     0.00000    -0.00000     0.00000    -0.00000    -0.00000




    ROOT NO.    7           8           9          10          11          12

           -17.37566   -17.36218   -15.23975   -15.23974   -13.36409   -12.44223
  
  
  S  H   1  -0.28033     0.00000     0.33661     0.00000     0.00000    -0.31885
  
  S  H   2   0.28033    -0.00000    -0.33661    -0.00000    -0.00000    -0.31885
  
  S  H   3   0.28033    -0.00000     0.16831    -0.29151     0.00000     0.15943
  
  S  H   4  -0.28033     0.00000    -0.16831     0.29151    -0.00000     0.15943
  
  S  H   5   0.28033    -0.00000     0.16830     0.29151    -0.00000     0.15943
  
  S  H   6  -0.28033     0.00000    -0.16830    -0.29151     0.00000     0.15943
  
  S  C   7  -0.20476     0.00000    -0.09240    -0.00000     0.00000     0.00164
 PX  C   7   0.00000     0.40825    -0.00000     0.17226     0.00000     0.00000
 PY  C   7  -0.21484     0.00000     0.42640     0.00000     0.00000    -0.31603
 PZ  C   7   0.00000    -0.00000    -0.00000     0.00000     0.40825    -0.00000
  
  S  C   8   0.20476    -0.00000     0.09240     0.00000     0.00000     0.00164
 PX  C   8   0.00000     0.40825    -0.00000     0.17226    -0.00000    -0.00000
 PY  C   8  -0.21484     0.00000     0.42640     0.00000     0.00000     0.31603
 PZ  C   8   0.00000    -0.00000    -0.00000     0.00000     0.40825     0.00000
  
  S  C   9   0.20476    -0.00000    -0.04620     0.08002    -0.00000    -0.00082
 PX  C   9   0.18606    -0.20412     0.25923    -0.27673     0.00000    -0.02035
 PY  C   9   0.10742     0.35355    -0.02259    -0.25923     0.00000     0.35128
 PZ  C   9   0.00000    -0.00000    -0.00000     0.00000     0.40825    -0.00000
  
  S  C  10  -0.20476     0.00000     0.04620    -0.08002     0.00000    -0.00082
 PX  C  10   0.18606    -0.20412     0.25923    -0.27673     0.00000     0.02035
 PY  C  10   0.10742     0.35355    -0.02259    -0.25923     0.00000    -0.35128
 PZ  C  10   0.00000     0.00000    -0.00000     0.00000     0.40825     0.00000
  
  S  C  11   0.20476    -0.00000    -0.04620    -0.08002    -0.00000    -0.00082
 PX  C  11  -0.18606    -0.20412    -0.25922    -0.27674     0.00000     0.02035
 PY  C  11   0.10742    -0.35355    -0.02259     0.25923    -0.00000     0.35128
 PZ  C  11   0.00000     0.00000     0.00000     0.00000     0.40825    -0.00000
  
  S  C  12  -0.20476     0.00000     0.04620     0.08002    -0.00000    -0.00082
 PX  C  12  -0.18606    -0.20412    -0.25922    -0.27674     0.00000    -0.02035
 PY  C  12   0.10742    -0.35355    -0.02259     0.25923    -0.00000    -0.35128
 PZ  C  12   0.00000    -0.00000    -0.00000     0.00000     0.40825    -0.00000




    ROOT NO.   13          14          15          16          17          18

           -12.44223    -8.96681    -8.96681     0.84186     0.84186     3.18151
  
  
  S  H   1  -0.00000     0.00000     0.00000     0.00000    -0.00000    -0.21104
  
  S  H   2  -0.00000     0.00000     0.00000    -0.00000     0.00000     0.21104
  
  S  H   3   0.27613    -0.00000    -0.00000     0.00000     0.00000     0.21104
  
  S  H   4   0.27613     0.00000    -0.00000     0.00000    -0.00000    -0.21104
  
  S  H   5  -0.27613    -0.00000     0.00000     0.00000    -0.00000     0.21104
  
  S  H   6  -0.27613    -0.00000    -0.00000     0.00000    -0.00000    -0.21104
  
  S  C   7  -0.00000    -0.00000    -0.00000    -0.00000     0.00000     0.34531
 PX  C   7  -0.36303    -0.00000    -0.00000    -0.00000     0.00000    -0.00000
 PY  C   7  -0.00000     0.00000     0.00000     0.00000    -0.00000    -0.05373
 PZ  C   7   0.00000    -0.57735     0.00002    -0.00004     0.57735    -0.00000
  
  S  C   8  -0.00000     0.00000    -0.00000     0.00000    -0.00000    -0.34531
 PX  C   8   0.36303     0.00000    -0.00000     0.00000     0.00000    -0.00000
 PY  C   8   0.00000    -0.00000    -0.00000     0.00000    -0.00000    -0.05373
 PZ  C   8   0.00000     0.57735    -0.00002    -0.00004     0.57735     0.00000
  
  S  C   9  -0.00142     0.00000     0.00000     0.00000    -0.00000    -0.34531
 PX  C   9   0.32778     0.00000     0.00000    -0.00000    -0.00000     0.04653
 PY  C   9  -0.02035    -0.00000    -0.00000    -0.00000     0.00000     0.02687
 PZ  C   9   0.00000    -0.28869    -0.49999     0.50002    -0.28864     0.00000
  
  S  C  10  -0.00142    -0.00000     0.00000    -0.00000     0.00000     0.34531
 PX  C  10  -0.32778    -0.00000     0.00000    -0.00000    -0.00000     0.04653
 PY  C  10   0.02035     0.00000    -0.00000     0.00000    -0.00000     0.02687
 PZ  C  10   0.00000     0.28869     0.49999     0.50002    -0.28864     0.00000
  
  S  C  11   0.00142     0.00000     0.00000    -0.00000     0.00000    -0.34531
 PX  C  11   0.32778     0.00000    -0.00000     0.00000    -0.00000    -0.04653
 PY  C  11   0.02035     0.00000    -0.00000    -0.00000     0.00000     0.02687
 PZ  C  11   0.00000    -0.28866     0.50001    -0.49998    -0.28871    -0.00000
  
  S  C  12   0.00142    -0.00000    -0.00000    -0.00000     0.00000     0.34531
 PX  C  12  -0.32778    -0.00000    -0.00000    -0.00000    -0.00000    -0.04653
 PY  C  12  -0.02035     0.00000     0.00000     0.00000    -0.00000     0.02687
 PZ  C  12   0.00000     0.28866    -0.50001    -0.49998    -0.28871    -0.00000




    ROOT NO.   19          20          21          22          23          24

             3.19021     4.06383     4.06383     5.24521     5.89019     5.89020
  
  
  S  H   1   0.00000     0.00001    -0.28568     0.31215    -0.36832    -0.00000
  
  S  H   2   0.00000     0.00001    -0.28568     0.31215     0.36832     0.00000
  
  S  H   3  -0.00000    -0.24741     0.14283     0.31215    -0.18416     0.31897
  
  S  H   4  -0.00000    -0.24741     0.14283     0.31215     0.18416    -0.31897
  
  S  H   5  -0.00000     0.24740     0.14285     0.31215    -0.18416    -0.31897
  
  S  H   6   0.00000     0.24740     0.14285     0.31215     0.18416     0.31897
  
  S  C   7  -0.00000    -0.00002     0.44209    -0.16981     0.28229     0.00000
 PX  C   7  -0.00000    -0.23647    -0.00001     0.00000    -0.00000     0.22169
 PY  C   7   0.00000    -0.00000     0.01889    -0.20097     0.26237     0.00000
 PZ  C   7  -0.40825     0.00000     0.00000     0.00000     0.00000    -0.00000
  
  S  C   8   0.00000    -0.00002     0.44209    -0.16981    -0.28229    -0.00000
 PX  C   8   0.00000     0.23647     0.00001    -0.00000    -0.00000     0.22169
 PY  C   8   0.00000     0.00000    -0.01889     0.20097     0.26237     0.00000
 PZ  C   8   0.40825    -0.00000    -0.00000    -0.00000    -0.00000    -0.00000
  
  S  C   9   0.00000     0.38287    -0.22103    -0.16981     0.14115    -0.24447
 PX  C   9  -0.00000     0.07328     0.09422    -0.17405     0.20961    -0.14136
 PY  C   9  -0.00000    -0.09421    -0.18208    -0.10049    -0.10067    -0.20961
 PZ  C   9   0.40825    -0.00000    -0.00000    -0.00000    -0.00000     0.00000
  
  S  C  10   0.00000     0.38287    -0.22103    -0.16981    -0.14115     0.24447
 PX  C  10  -0.00000    -0.07328    -0.09422     0.17405     0.20961    -0.14136
 PY  C  10   0.00000     0.09421     0.18208     0.10049    -0.10067    -0.20961
 PZ  C  10  -0.40825    -0.00000    -0.00000    -0.00000    -0.00000    -0.00000
  
  S  C  11  -0.00000    -0.38285    -0.22106    -0.16981     0.14114     0.24447
 PX  C  11   0.00000     0.07329    -0.09421     0.17405    -0.20960    -0.14136
 PY  C  11   0.00000     0.09422    -0.18207    -0.10049    -0.10067     0.20960
 PZ  C  11   0.40825    -0.00000     0.00000    -0.00000    -0.00000    -0.00000
  
  S  C  12  -0.00000    -0.38285    -0.22106    -0.16981    -0.14114    -0.24447
 PX  C  12   0.00000    -0.07329     0.09421    -0.17405    -0.20960    -0.14136
 PY  C  12  -0.00000    -0.09422     0.18207     0.10049    -0.10067     0.20960
 PZ  C  12  -0.40825     0.00000     0.00000     0.00000     0.00000     0.00000




    ROOT NO.   25          26          27          28          29          30

             8.46956     9.14849     9.14849    11.76971    11.76971    12.63967
  
  
  S  H   1  -0.20867     0.28241    -0.00002     0.00002    -0.16811     0.00000
  
  S  H   2   0.20867     0.28241    -0.00002    -0.00002     0.16811     0.00000
  
  S  H   3   0.20867    -0.14122    -0.24456    -0.14558    -0.08407     0.00000
  
  S  H   4  -0.20867    -0.14122    -0.24456     0.14558     0.08407     0.00000
  
  S  H   5   0.20867    -0.14119     0.24458     0.14560    -0.08404    -0.00000
  
  S  H   6  -0.20867    -0.14119     0.24458    -0.14560     0.08404    -0.00000
  
  S  C   7  -0.07417     0.11875    -0.00001     0.00002    -0.13065    -0.00000
 PX  C   7   0.00000     0.00001     0.15622     0.45317     0.00005    -0.40825
 PY  C   7   0.34296    -0.46376     0.00003    -0.00003     0.28747    -0.00000
 PZ  C   7   0.00000    -0.00000     0.00000     0.00000     0.00000    -0.00000
  
  S  C   8   0.07417     0.11875    -0.00001    -0.00002     0.13065    -0.00000
 PX  C   8   0.00000    -0.00001    -0.15622     0.45317     0.00005     0.40825
 PY  C   8   0.34296     0.46376    -0.00003    -0.00003     0.28747     0.00000
 PZ  C   8  -0.00000    -0.00000     0.00000     0.00000     0.00000    -0.00000
  
  S  C   9   0.07417    -0.05938    -0.10283    -0.11314    -0.06534     0.00000
 PX  C   9  -0.29701     0.26848     0.30875     0.32891    -0.07171    -0.20412
 PY  C   9  -0.17148    -0.00121     0.26846    -0.07180     0.41174     0.35355
 PZ  C   9  -0.00000    -0.00000     0.00000     0.00000    -0.00000     0.00000
  
  S  C  10  -0.07417    -0.05938    -0.10283     0.11314     0.06534     0.00000
 PX  C  10  -0.29701    -0.26848    -0.30875     0.32891    -0.07171     0.20412
 PY  C  10  -0.17148     0.00121    -0.26846    -0.07180     0.41174    -0.35355
 PZ  C  10   0.00000     0.00000    -0.00000    -0.00000    -0.00000    -0.00000
  
  S  C  11   0.07417    -0.05937     0.10284     0.11315    -0.06531    -0.00000
 PX  C  11   0.29701    -0.26844     0.30878     0.32889     0.07179    -0.20412
 PY  C  11  -0.17148    -0.00124    -0.26846     0.07170     0.41175    -0.35355
 PZ  C  11  -0.00000    -0.00000     0.00000     0.00000    -0.00000     0.00000
  
  S  C  12  -0.07417    -0.05937     0.10284    -0.11315     0.06531    -0.00000
 PX  C  12   0.29701     0.26844    -0.30878     0.32889     0.07179     0.20412
 PY  C  12  -0.17148     0.00124     0.26846     0.07170     0.41175     0.35355
 PZ  C  12   0.00000     0.00000    -0.00000     0.00000    -0.00000     0.00000


 Reference determinate nber   1 is ALPHA 1 -  15
 SINGLE excitations FROM orbs   1 to  15 INTO orbs  16 to  30
 

 CI excitations=  226:        =226
 The lowest  226 spin-adapted configurations of multiplicity=  1
     sym   eV   cm**-1 -dets- dipole oscilator X FRAG ....Excitations named from first reference determinate
                       tot  #  Debye  strength
 
   1      0.000      0.  1  1  0.0000 0.000000 0  0 (    )->(       )
   2      5.802  46796.  1  1  0.0000 0.495181 1  1 (  15)->(  17   )
   3      5.802  46796.  1  1  0.0000 0.495181 1  1 (  14)->(  16   )
   4      6.483  52293.  1  1  0.0000 0.553346 1  1 (  15)->(  16   )
   5      6.483  52293.  1  1  0.0000 0.553346 1  1 (  14)->(  17   )
   6      7.173  57855.  1  1  0.0000 0.000000 1  1 (  15)->(  18   )
   7      7.173  57855.  1  1  0.0000 0.000000 1  1 (  14)->(  18   )
   8      7.960  64198.  1  1  0.0000 0.000000 1  1 (  15)->(  20   )
   9      7.960  64198.  1  1  0.0000 0.000000 1  1 (  14)->(  21   )
  10      7.962  64215.  1  1  0.0000 0.000000 1  1 (  15)->(  21   )
  11      7.962  64215.  1  1  0.0000 0.000000 1  1 (  14)->(  20   )
  12      7.962  64219.  1  1  0.0000 0.000002 1  1 (  13)->(  16   )
  13      7.962  64219.  1  1  0.0000 0.000002 1  1 (  12)->(  17   )
  14      7.991  64449.  1  1  0.0000 0.000000 1  1 (  15)->(  19   )
  15      7.991  64449.  1  1  0.0000 0.000000 1  1 (  14)->(  19   )
  16      7.994  64478.  1  1  0.0000 0.000000 1  1 (  13)->(  17   )
  17      7.994  64478.  1  1  0.0000 0.000000 1  1 (  12)->(  16   )
  18      9.334  75286.  1  1  0.0000 0.000000 1  1 (  15)->(  22   )
  19      9.334  75286.  1  1  0.0000 0.000000 1  1 (  14)->(  22   )
  20      9.719  78391.  1  1  0.0000 0.089824 1  1 (  15)->(  24   )
  21      9.719  78391.  1  1  0.0000 0.089824 1  1 (  14)->(  23   )
  22      9.880  79691.  1  1  0.0000 0.000000 1  1 (  15)->(  23   )
  23      9.880  79691.  1  1  0.0000 0.000000 1  1 (  14)->(  24   )
  24     10.040  80975.  1  1  0.0000 0.000000 1  1 (  11)->(  16   )
  25     10.040  80975.  1  1  0.0000 0.000000 1  1 (  11)->(  17   )
  26     10.327  83289.  1  1  0.0000 0.000000 1  1 (  13)->(  19   )
  27     10.327  83289.  1  1  0.0000 0.000000 1  1 (  12)->(  19   )
  28     10.651  85909.  1  1  0.0000 0.000000 1  1 (  10)->(  16   )
  29     10.651  85910.  1  1  0.0000 0.000000 1  1 (   9)->(  17   )
  30     11.011  88811.  1  1  0.0000 0.000000 1  1 (  10)->(  17   )
  31     11.011  88811.  1  1  0.0000 0.000000 1  1 (   9)->(  16   )
  32     11.148  89913.  1  1  0.0000 0.116372 1  1 (  13)->(  18   )
  33     11.148  89913.  1  1  0.0000 0.116372 1  1 (  12)->(  18   )
  34     11.570  93322.  1  1  0.0000 0.000000 1  1 (  11)->(  18   )
  35     11.820  95338.  1  1  0.0000 0.000000 1  1 (  13)->(  21   )
  36     11.820  95338.  1  1  0.0000 0.000000 1  1 (  12)->(  20   )
  37     11.989  96697.  1  1  0.0000 0.000000 1  1 (  13)->(  20   )
  38     11.989  96697.  1  1  0.0000 0.000000 1  1 (  12)->(  21   )
  39     12.095  97554.  1  1  0.0000 0.000000 1  1 (  15)->(  25   )
  40     12.095  97554.  1  1  0.0000 0.000000 1  1 (  14)->(  25   )
  41     12.135  97879.  1  1  0.0000 0.000000 1  1 (  11)->(  19   )
  42     12.358  99673.  1  1  0.0000 0.000000 1  1 (  11)->(  20   )
  43     12.358  99673.  1  1  0.0000 0.000000 1  1 (  11)->(  21   )
  44     12.530 101065.  1  1  0.0000 0.000000 1  1 (   8)->(  16   )
  45     12.530 101065.  1  1  0.0000 0.000000 1  1 (   8)->(  17   )
  46     12.553 101250.  1  1  0.0000 0.000000 1  1 (  15)->(  27   )
  47     12.553 101250.  1  1  0.0000 0.000000 1  1 (  14)->(  26   )
  48     12.951 104461.  1  1  0.0000 0.000000 1  1 (  15)->(  26   )
  49     12.951 104461.  1  1  0.0000 0.000000 1  1 (  14)->(  27   )
  50     13.180 106301.  1  1  0.0000 0.000000 1  1 (  10)->(  19   )
  51     13.180 106301.  1  1  0.0000 0.000000 1  1 (   9)->(  19   )
  52     13.245 106826.  1  1  0.0000 0.000000 1  1 (   7)->(  16   )
  53     13.245 106826.  1  1  0.0000 0.000000 1  1 (   7)->(  17   )
  54     13.274 107059.  1  1  0.0000 0.000000 1  1 (  13)->(  22   )
  55     13.274 107059.  1  1  0.0000 0.000000 1  1 (  12)->(  22   )
  56     13.732 110753.  1  1  0.0000 0.091846 1  1 (  11)->(  22   )
  57     13.754 110935.  1  1  0.0000 0.027118 1  1 (  13)->(  23   )
  58     13.754 110935.  1  1  0.0000 0.027117 1  1 (  12)->(  24   )
  59     13.875 111906.  1  1  0.0000 0.027355 1  1 (  13)->(  24   )
  60     13.875 111906.  1  1  0.0000 0.027355 1  1 (  12)->(  23   )
  61     13.955 112553.  1  1  0.0000 0.000000 1  1 (  10)->(  18   )
  62     13.955 112553.  1  1  0.0000 0.000000 1  1 (   9)->(  18   )
  63     14.197 114507.  1  1  0.0000 0.000000 1  1 (  11)->(  23   )
  64     14.197 114507.  1  1  0.0000 0.000000 1  1 (  11)->(  24   )
  65     14.607 117811.  1  1  0.0000 0.050763 1  1 (  10)->(  21   )
  66     14.607 117811.  1  1  0.0000 0.050763 1  1 (   9)->(  20   )
  67     14.753 118991.  1  1  0.0000 0.051271 1  1 (  10)->(  20   )
  68     14.753 118991.  1  1  0.0000 0.051272 1  1 (   9)->(  21   )
  69     14.879 120006.  1  1  0.0000 0.000000 1  1 (   8)->(  19   )
  70     15.100 121789.  1  1  0.0000 0.000000 1  1 (  15)->(  29   )
  71     15.100 121789.  1  1  0.0000 0.000000 1  1 (  14)->(  28   )
  72     15.284 123276.  1  1  0.0000 0.030255 1  1 (  15)->(  28   )
  73     15.284 123276.  1  1  0.0000 0.030255 1  1 (  14)->(  29   )
  74     15.569 125569.  1  1  0.0000 0.000000 1  1 (   8)->(  18   )
  75     15.593 125766.  1  1  0.0000 0.151634 1  1 (   7)->(  19   )
  76     15.933 128508.  1  1  0.0000 0.000000 1  1 (  15)->(  30   )
  77     15.933 128508.  1  1  0.0000 0.000000 1  1 (  14)->(  30   )
  78     16.132 130112.  1  1  0.0000 0.000000 1  1 (   7)->(  18   )
  79     16.195 130624.  1  1  0.0000 0.586844 1  1 (  10)->(  22   )
  80     16.195 130624.  1  1  0.0000 0.586843 1  1 (   9)->(  22   )
  81     16.259 131142.  1  1  0.0000 0.036318 1  1 (  13)->(  25   )
  82     16.259 131142.  1  1  0.0000 0.036318 1  1 (  12)->(  25   )
  83     16.492 133020.  1  1  0.0000 0.000000 1  1 (  11)->(  25   )
  84     16.498 133069.  1  1  0.0000 0.000000 1  1 (  10)->(  23   )
  85     16.498 133069.  1  1  0.0000 0.000000 1  1 (   9)->(  24   )
  86     16.760 135177.  1  1  0.0000 0.000000 1  1 (  10)->(  24   )
  87     16.760 135177.  1  1  0.0000 0.000000 1  1 (   9)->(  23   )
  88     16.794 135451.  1  1  0.0000 0.000000 1  1 (  13)->(  26   )
  89     16.794 135451.  1  1  0.0000 0.000000 1  1 (  12)->(  27   )
  90     16.819 135655.  1  1  0.0000 0.066248 1  1 (   8)->(  20   )
  91     16.819 135655.  1  1  0.0000 0.066248 1  1 (   8)->(  21   )
  92     16.958 136775.  1  1  0.0000 0.000151 1  1 (   7)->(  20   )
  93     16.958 136775.  1  1  0.0000 0.000151 1  1 (   7)->(  21   )
  94     16.979 136943.  1  1  0.0000 0.000000 1  1 (  13)->(  27   )
  95     16.979 136943.  1  1  0.0000 0.000000 1  1 (  12)->(  26   )
  96     17.150 138322.  1  1  0.0000 0.000000 1  1 (  11)->(  26   )
  97     17.150 138322.  1  1  0.0000 0.000000 1  1 (  11)->(  27   )
  98     17.730 142999.  1  1  0.0000 0.000000 1  1 (   8)->(  22   )
  99     18.417 148546.  1  1  0.0000 0.000000 1  1 (   8)->(  23   )
 100     18.417 148547.  1  1  0.0000 0.000000 1  1 (   8)->(  24   )
 101     18.527 149434.  1  1  0.0000 0.000000 1  1 (   7)->(  22   )
 102     19.007 153305.  1  1  0.0000 0.000000 1  1 (   7)->(  23   )
 103     19.007 153305.  1  1  0.0000 0.000000 1  1 (   7)->(  24   )
 104     19.115 154171.  1  1  0.0000 0.000000 1  1 (   6)->(  16   )
 105     19.115 154171.  1  1  0.0000 0.000000 1  1 (   6)->(  17   )
 106     19.165 154576.  1  1  0.0000 0.408713 1  1 (  13)->(  29   )
 107     19.165 154576.  1  1  0.0000 0.408713 1  1 (  12)->(  28   )
 108     19.272 155443.  1  1  0.0000 0.000000 1  1 (  10)->(  25   )
 109     19.272 155443.  1  1  0.0000 0.000000 1  1 (   9)->(  25   )
 110     19.589 157999.  1  1  0.0000 0.000000 1  1 (  11)->(  28   )
 111     19.589 157999.  1  1  0.0000 0.000000 1  1 (  11)->(  29   )
 112     19.781 159548.  1  1  0.0000 0.014094 1  1 (  10)->(  26   )
 113     19.781 159548.  1  1  0.0000 0.014094 1  1 (   9)->(  27   )
 114     19.849 160091.  1  1  0.0000 0.423295 1  1 (  13)->(  28   )
 115     19.849 160091.  1  1  0.0000 0.423296 1  1 (  12)->(  29   )
 116     20.106 162170.  1  1  0.0000 0.014326 1  1 (  10)->(  27   )
 117     20.106 162170.  1  1  0.0000 0.014326 1  1 (   9)->(  26   )
 118     20.330 163974.  1  1  0.0000 0.000000 1  1 (  11)->(  30   )
 119     20.372 164311.  1  1  0.0000 0.000000 1  1 (  13)->(  30   )
 120     20.372 164311.  1  1  0.0000 0.000000 1  1 (  12)->(  30   )
 121     20.490 165267.  1  1  0.0000 0.000000 1  1 (   8)->(  25   )
 122     20.743 167301.  1  1  0.0000 0.000000 1  1 (   5)->(  16   )
 123     20.743 167301.  1  1  0.0000 0.000000 1  1 (   4)->(  17   )
 124     20.842 168106.  1  1  0.0000 0.299212 1  1 (   5)->(  17   )
 125     20.842 168106.  1  1  0.0000 0.299212 1  1 (   4)->(  16   )
 126     21.350 172199.  1  1  0.0000 0.147768 1  1 (   8)->(  26   )
 127     21.350 172199.  1  1  0.0000 0.147768 1  1 (   8)->(  27   )
 128     21.416 172733.  1  1  0.0000 0.000000 1  1 (   7)->(  25   )
 129     21.463 173112.  1  1  0.0000 0.000000 1  1 (   6)->(  19   )
 130     21.959 177112.  1  1  0.0000 0.188609 1  1 (   7)->(  26   )
 131     21.959 177112.  1  1  0.0000 0.188609 1  1 (   7)->(  27   )
 132     22.031 177695.  1  1  0.0000 0.000000 1  1 (   6)->(  18   )
 133     22.071 178018.  1  1  0.0000 0.000000 1  1 (  10)->(  29   )
 134     22.071 178018.  1  1  0.0000 0.000000 1  1 (   9)->(  28   )
 135     22.265 179584.  1  1  0.0000 0.000000 1  1 (  10)->(  28   )
 136     22.265 179584.  1  1  0.0000 0.000000 1  1 (   9)->(  29   )
 137     22.863 184399.  1  1  0.0000 0.000000 1  1 (   6)->(  20   )
 138     22.863 184399.  1  1  0.0000 0.000000 1  1 (   6)->(  21   )
 139     22.875 184498.  1  1  0.0000 0.233423 1  1 (  10)->(  30   )
 140     22.875 184498.  1  1  0.0000 0.233423 1  1 (   9)->(  30   )
 141     23.141 186644.  1  1  0.0000 0.000000 1  1 (   5)->(  19   )
 142     23.141 186644.  1  1  0.0000 0.000000 1  1 (   4)->(  19   )
 143     23.775 191762.  1  1  0.0000 0.019786 1  1 (   5)->(  18   )
 144     23.775 191762.  1  1  0.0000 0.019786 1  1 (   4)->(  18   )
 145     24.287 195891.  1  1  0.0000 0.000000 1  1 (   7)->(  28   )
 146     24.287 195891.  1  1  0.0000 0.000000 1  1 (   7)->(  29   )
 147     24.516 197736.  1  1  0.0000 0.000000 1  1 (   8)->(  28   )
 148     24.516 197736.  1  1  0.0000 0.000000 1  1 (   8)->(  29   )
 149     24.586 198298.  1  1  0.0000 0.000000 1  1 (   5)->(  21   )
 150     24.586 198298.  1  1  0.0000 0.000000 1  1 (   4)->(  20   )
 151     24.670 198974.  1  1  0.0000 0.000000 1  1 (   5)->(  20   )
 152     24.670 198974.  1  1  0.0000 0.000000 1  1 (   4)->(  21   )
 153     24.736 199512.  1  1  0.0000 0.000000 1  1 (   6)->(  22   )
 154     25.012 201737.  1  1  0.0000 0.047227 1  1 (   6)->(  23   )
 155     25.012 201737.  1  1  0.0000 0.047227 1  1 (   6)->(  24   )
 156     25.042 201982.  1  1  0.0000 0.000000 1  1 (   7)->(  30   )
 157     25.583 206341.  1  1  0.0000 0.000000 1  1 (   8)->(  30   )
 158     25.947 209276.  1  1  0.0000 0.000000 1  1 (   5)->(  22   )
 159     25.947 209276.  1  1  0.0000 0.000000 1  1 (   4)->(  22   )
 160     26.303 212145.  1  1  0.0000 0.003511 1  1 (   5)->(  24   )
 161     26.303 212145.  1  1  0.0000 0.003511 1  1 (   4)->(  23   )
 162     26.713 215454.  1  1  0.0000 0.003565 1  1 (   5)->(  23   )
 163     26.713 215454.  1  1  0.0000 0.003565 1  1 (   4)->(  24   )
 164     27.461 221492.  1  1  0.0000 0.000000 1  1 (   6)->(  25   )
 165     28.118 226789.  1  1  0.0000 0.000000 1  1 (   6)->(  26   )
 166     28.118 226789.  1  1  0.0000 0.000000 1  1 (   6)->(  27   )
 167     28.623 230864.  1  1  0.0000 0.000000 1  1 (   3)->(  17   )
 168     28.623 230864.  1  1  0.0000 0.000000 1  1 (   2)->(  16   )
 169     28.628 230897.  1  1  0.0000 0.000000 1  1 (   3)->(  16   )
 170     28.628 230897.  1  1  0.0000 0.000000 1  1 (   2)->(  17   )
 171     28.744 231838.  1  1  0.0000 0.093304 1  1 (   5)->(  25   )
 172     28.744 231838.  1  1  0.0000 0.093304 1  1 (   4)->(  25   )
 173     29.348 236706.  1  1  0.0000 0.000000 1  1 (   5)->(  27   )
 174     29.348 236706.  1  1  0.0000 0.000000 1  1 (   4)->(  26   )
 175     29.516 238061.  1  1  0.0000 0.000000 1  1 (   5)->(  26   )
 176     29.516 238061.  1  1  0.0000 0.000000 1  1 (   4)->(  27   )
 177     30.361 244879.  1  1  0.0000 0.016429 1  1 (   6)->(  29   )
 178     30.361 244879.  1  1  0.0000 0.016429 1  1 (   6)->(  28   )
 179     30.913 249327.  1  1  0.0000 0.000000 1  1 (   6)->(  30   )
 180     30.974 249821.  1  1  0.0000 0.000000 1  1 (   3)->(  19   )
 181     30.974 249822.  1  1  0.0000 0.000000 1  1 (   2)->(  19   )
 182     31.533 254329.  1  1  0.0000 0.000000 1  1 (   3)->(  18   )
 183     31.533 254329.  1  1  0.0000 0.000000 1  1 (   2)->(  18   )
 184     32.019 258254.  1  1  0.0000 0.022597 1  1 (   5)->(  28   )
 185     32.019 258254.  1  1  0.0000 0.022597 1  1 (   4)->(  29   )
 186     32.187 259609.  1  1  0.0000 0.020216 1  1 (   3)->(  21   )
 187     32.187 259609.  1  1  0.0000 0.020216 1  1 (   2)->(  20   )
 188     32.354 260951.  1  1  0.0000 0.022833 1  1 (   5)->(  29   )
 189     32.354 260951.  1  1  0.0000 0.022833 1  1 (   4)->(  28   )
 190     32.581 262782.  1  1  0.0000 0.020463 1  1 (   3)->(  20   )
 191     32.581 262782.  1  1  0.0000 0.020463 1  1 (   2)->(  21   )
 192     33.138 267281.  1  1  0.0000 0.000000 1  1 (   5)->(  30   )
 193     33.138 267281.  1  1  0.0000 0.000000 1  1 (   4)->(  30   )
 194     33.642 271340.  1  1  0.0000 0.001560 1  1 (   3)->(  22   )
 195     33.642 271340.  1  1  0.0000 0.001560 1  1 (   2)->(  22   )
 196     34.180 275682.  1  1  0.0000 0.000000 1  1 (   3)->(  24   )
 197     34.180 275682.  1  1  0.0000 0.000000 1  1 (   2)->(  23   )
 198     34.191 275772.  1  1  0.0000 0.000000 1  1 (   3)->(  23   )
 199     34.191 275772.  1  1  0.0000 0.000000 1  1 (   2)->(  24   )
 200     36.562 294889.  1  1  0.0000 0.000000 1  1 (   3)->(  25   )
 201     36.562 294889.  1  1  0.0000 0.000000 1  1 (   2)->(  25   )
 202     37.198 300021.  1  1  0.0000 0.025703 1  1 (   3)->(  26   )
 203     37.198 300021.  1  1  0.0000 0.025703 1  1 (   2)->(  27   )
 204     37.317 300979.  1  1  0.0000 0.025785 1  1 (   3)->(  27   )
 205     37.317 300979.  1  1  0.0000 0.025785 1  1 (   2)->(  26   )
 206     39.158 315829.  1  1  0.0000 0.000000 1  1 (   1)->(  16   )
 207     39.158 315829.  1  1  0.0000 0.000000 1  1 (   1)->(  17   )
 208     39.829 321244.  1  1  0.0000 0.000000 1  1 (   3)->(  28   )
 209     39.829 321244.  1  1  0.0000 0.000000 1  1 (   2)->(  29   )
 210     39.845 321369.  1  1  0.0000 0.000000 1  1 (   3)->(  29   )
 211     39.845 321369.  1  1  0.0000 0.000000 1  1 (   2)->(  28   )
 212     40.830 329320.  1  1  0.0000 0.077822 1  1 (   3)->(  30   )
 213     40.830 329320.  1  1  0.0000 0.077822 1  1 (   2)->(  30   )
 214     41.506 334770.  1  1  0.0000 0.000000 1  1 (   1)->(  19   )
 215     42.149 339955.  1  1  0.0000 0.000000 1  1 (   1)->(  18   )
 216     42.912 346106.  1  1  0.0000 0.000000 1  1 (   1)->(  20   )
 217     42.912 346106.  1  1  0.0000 0.000000 1  1 (   1)->(  21   )
 218     44.004 354917.  1  1  0.0000 0.000000 1  1 (   1)->(  22   )
 219     44.512 359017.  1  1  0.0000 0.019954 1  1 (   1)->(  23   )
 220     44.512 359017.  1  1  0.0000 0.019954 1  1 (   1)->(  24   )
 221     47.330 381745.  1  1  0.0000 0.000000 1  1 (   1)->(  25   )
 222     48.083 387815.  1  1  0.0000 0.000000 1  1 (   1)->(  26   )
 223     48.083 387815.  1  1  0.0000 0.000000 1  1 (   1)->(  27   )
 224     50.658 408588.  1  1  0.0000 0.089275 1  1 (   1)->(  29   )
 225     50.658 408588.  1  1  0.0000 0.089275 1  1 (   1)->(  28   )
 226     50.955 410985.  1  1  0.0000 0.000000 1  1 (   1)->(  30   )

 Depression of ground-state after CI=          0. cm**-1 Energy= -2890.0037491 eV
 Dipole moment=  0.000000 -0.000000 -0.000000 tot=  0.000000 Debyes


  CI trans.  energy frequency wavelength oscillator ---------polarization---------    dipole   ------components----- 
 st.  symm.    eV      cm-1       nm      strength       x          y         z       moment     x       y       z 

   2      4.7082902    37975.    263.33  0.000000                                   0.000000   0.000  -0.000  -0.000
   3      5.3612330    43241.    231.26  0.000000                                   0.000000   0.000  -0.000   0.000
   4      6.2211294    50177.    199.29  0.872452  -0.000049   1.000000  -0.000000  0.000000   0.000  -0.000   0.000
   5      6.2211297    50177.    199.29  0.872452  -1.000000  -0.000049   0.000000  0.000000   0.000  -0.000  -0.000
   6      7.0620475    56959.    175.56  0.000000                                   0.000000   0.000  -0.000  -0.000
   7      7.0620501    56959.    175.56  0.000000                                   0.000000   0.000  -0.000  -0.000
   8      7.5043990    60527.    165.21  0.000000                                   0.000000  -0.000   0.000   0.000
   9      7.5044018    60527.    165.21  0.000000                                   0.000000  -0.000  -0.000   0.000
  10      7.7174347    62245.    160.65  0.000000                                   0.000000  -0.000  -0.000  -0.000
  11      7.7721346    62687.    159.52  0.000000                                   0.000000  -0.000  -0.000   0.000
  12      7.7721347    62687.    159.52  0.000000                                   0.000000   0.000  -0.000  -0.000
  13      7.7915629    62843.    159.13  0.000000                                   0.000000   0.000  -0.000  -0.000
  14      7.8036508    62941.    158.88  0.000000                                   0.000000   0.000  -0.000  -0.000
  15      7.8036515    62941.    158.88  0.000000                                   0.000000  -0.000  -0.000   0.000
  16      7.8309626    63161.    158.33  0.000254   0.000000   0.000000  -1.000000  0.000000   0.000  -0.000  -0.000
  17      7.9389772    64032.    156.17  0.000000                                   0.000000  -0.000  -0.000  -0.000
  18      9.1416210    73732.    135.63  0.000000                                   0.000000  -0.000  -0.000  -0.000
  19      9.1416240    73732.    135.63  0.000000                                   0.000000  -0.000   0.000  -0.000
  20      9.3070768    75067.    133.21  0.000000                                   0.000000  -0.000  -0.000  -0.000
  21      9.3070795    75067.    133.21  0.000000                                   0.000000   0.000   0.000   0.000
  22      9.3227268    75193.    132.99  0.187388   0.000000  -0.000000   1.000000  0.000000   0.000  -0.000  -0.000
  23      9.5039018    76654.    130.46  0.000000                                   0.000000   0.000  -0.000  -0.000
  24      9.5039036    76654.    130.46  0.000000                                   0.000000  -0.000  -0.000  -0.000
  25      9.5329053    76888.    130.06  0.000000                                   0.000000   0.000  -0.000   0.000
  26      9.5329053    76888.    130.06  0.000000                                   0.000000  -0.000   0.000   0.000
  27      9.8502626    79448.    125.87  0.000000                                   0.000000  -0.000   0.000  -0.000
  28     10.2831117    82939.    120.57  0.000000                                   0.000000   0.000  -0.000  -0.000
  29     11.0898295    89446.    111.80  0.192663  -1.000000  -0.000002   0.000000  0.000000   0.000  -0.000  -0.000
  30     11.0898322    89446.    111.80  0.192664   0.000002  -1.000000   0.000000  0.000000   0.000  -0.000   0.000
  31     11.1840746    90206.    110.86  0.000000                                   0.000000   0.000  -0.000   0.000
  32     11.4789134    92584.    108.01  0.000000                                   0.000000   0.000  -0.000  -0.000
  33     11.4789143    92584.    108.01  0.000000                                   0.000000   0.000  -0.000   0.000
  34     11.5192221    92909.    107.63  0.000000                                   0.000000  -0.000  -0.000  -0.000
  35     11.6795320    94202.    106.15  0.000000                                   0.000000  -0.000   0.000  -0.000
  36     11.6997845    94365.    105.97  0.000000                                   0.000000   0.000  -0.000   0.000
  37     11.8452546    95539.    104.67  0.000000                                   0.000000   0.000  -0.000  -0.000
  38     11.8723608    95757.    104.43  0.000000                                   0.000000   0.000  -0.000   0.000
  39     11.8723611    95757.    104.43  0.000000                                   0.000000   0.000  -0.000  -0.000
  40     11.9001969    95982.    104.19  0.000000                                   0.000000  -0.000  -0.000  -0.000
  41     11.9001996    95982.    104.19  0.000000                                   0.000000   0.000  -0.000   0.000
  42     11.9720287    96561.    103.56  0.000000                                   0.000000   0.000  -0.000   0.000
  43     12.5260982   101030.     98.98  0.000000                                   0.000000  -0.000  -0.000  -0.000
  44     12.5260994   101030.     98.98  0.000000                                   0.000000   0.000   0.000  -0.000
  45     12.5959828   101594.     98.43  0.000000                                   0.000000  -0.000   0.000  -0.000
  46     12.5959828   101594.     98.43  0.000000                                   0.000000  -0.000  -0.000  -0.000
  47     12.6687663   102181.     97.87  0.000000                                   0.000000   0.000  -0.000  -0.000
  48     12.6687668   102181.     97.87  0.000000                                   0.000000   0.000  -0.000  -0.000
  49     13.0865389   105550.     94.74  0.000000                                   0.000000  -0.000   0.000  -0.000
  50     13.0865412   105550.     94.74  0.000000                                   0.000000  -0.000  -0.000  -0.000
  51     13.1284259   105888.     94.44  0.000000                                   0.000000   0.000  -0.000  -0.000
  52     13.1739740   106256.     94.11  0.000000                                   0.000000  -0.000  -0.000  -0.000
  53     13.2188538   106618.     93.79  0.000000                                   0.000000  -0.000   0.000  -0.000
  54     13.2188590   106618.     93.79  0.000000                                   0.000000  -0.000   0.000  -0.000
  55     13.3998659   108077.     92.53  0.000000                                   0.000000  -0.000  -0.000  -0.000
  56     13.3998673   108077.     92.53  0.000000                                   0.000000   0.000  -0.000   0.000
  57     13.6460167   110063.     90.86  0.000000                                   0.000000   0.000  -0.000  -0.000
  58     13.6496125   110092.     90.83  0.024670   1.000000  -0.000009   0.000000  0.000000   0.000  -0.000  -0.000
  59     13.6496137   110092.     90.83  0.024670  -0.000009  -1.000000  -0.000000  0.000000   0.000  -0.000  -0.000
  60     13.8493222   111703.     89.52  0.003366   0.000000  -0.000000  -1.000000  0.000000   0.000  -0.000  -0.000
  61     13.9480737   112499.     88.89  0.000000                                   0.000000   0.000  -0.000   0.000
  62     13.9480790   112499.     88.89  0.000000                                   0.000000   0.000  -0.000   0.000
  63     14.3205237   115503.     86.58  0.000000                                   0.000000  -0.000   0.000  -0.000
  64     14.3205258   115503.     86.58  0.000000                                   0.000000  -0.000  -0.000  -0.000
  65     14.6430651   118105.     84.67  0.070233   0.000006  -1.000000   0.000000  0.000000  -0.000  -0.000  -0.000
  66     14.6430659   118105.     84.67  0.070233  -1.000000  -0.000006  -0.000000  0.000000  -0.000  -0.000  -0.000
  67     14.7199968   118725.     84.23  0.000000                                   0.000000  -0.000  -0.000  -0.000
  68     14.7315997   118819.     84.16  0.000000                                   0.000000  -0.000  -0.000  -0.000
  69     14.8319147   119628.     83.59  0.000000                                   0.000000  -0.000  -0.000  -0.000
  70     14.9612459   120671.     82.87  0.000000                                   0.000000  -0.000  -0.000  -0.000
  71     15.0544635   121423.     82.36  0.000000                                   0.000000  -0.000  -0.000  -0.000
  72     15.0544635   121423.     82.36  0.000000                                   0.000000   0.000  -0.000  -0.000
  73     15.4929215   124959.     80.03  0.013215   0.000000   0.000000   1.000000  0.000000   0.000  -0.000  -0.000
  74     15.5840769   125694.     79.56  0.000000                                   0.000000   0.000  -0.000   0.000
  75     15.6465319   126198.     79.24  0.340507  -0.000000   0.000000  -1.000000  0.000000   0.000  -0.000  -0.000
  76     15.8190679   127590.     78.38  0.000000                                   0.000000   0.000  -0.000   0.000
  77     15.9331367   128510.     77.82  0.000000                                   0.000000   0.000   0.000  -0.000
  78     15.9331393   128510.     77.82  0.000000                                   0.000000  -0.000  -0.000  -0.000
  79     15.9648670   128766.     77.66  0.063204  -1.000000  -0.000002  -0.000000  0.000000   0.000  -0.000  -0.000
  80     15.9648684   128766.     77.66  0.063204  -0.000002   1.000000   0.000000  0.000000   0.000  -0.000  -0.000
  81     16.0443686   129407.     77.28  0.000000                                   0.000000  -0.000   0.000  -0.000
  82     16.1751595   130462.     76.65  0.729380   1.000000  -0.000003  -0.000000  0.000000   0.000  -0.000  -0.000
  83     16.1751646   130462.     76.65  0.729380   0.000003   1.000000   0.000000  0.000000  -0.000  -0.000  -0.000
  84     16.4106898   132361.     75.55  0.000000                                   0.000000  -0.000  -0.000  -0.000
  85     16.4106910   132361.     75.55  0.000000                                   0.000000  -0.000  -0.000  -0.000
  86     16.6347775   134169.     74.53  0.000000                                   0.000000  -0.000  -0.000  -0.000
  87     16.6347791   134169.     74.53  0.000000                                   0.000000   0.000  -0.000  -0.000
  88     16.7660558   135228.     73.95  0.000000                                   0.000000  -0.000   0.000  -0.000
  89     16.7666852   135233.     73.95  0.034788  -1.000000  -0.000005  -0.000000  0.000000   0.000  -0.000  -0.000
  90     16.7666859   135233.     73.95  0.034789   0.000005  -1.000000   0.000000  0.000000   0.000  -0.000  -0.000
  91     16.7775975   135321.     73.90  0.000000                                   0.000000  -0.000   0.000  -0.000
  92     16.9735389   136901.     73.05  0.000000                                   0.000000   0.000  -0.000  -0.000
  93     17.1929068   138670.     72.11  0.008656   1.000000   0.000002  -0.000000  0.000000   0.000  -0.000  -0.000
  94     17.1929082   138671.     72.11  0.008656   0.000002  -1.000000  -0.000000  0.000000   0.000  -0.000  -0.000
  95     17.2191888   138882.     72.00  0.000000                                   0.000000  -0.000   0.000  -0.000
  96     17.5825203   141813.     70.52  0.000000                                   0.000000  -0.000  -0.000  -0.000
  97     17.6582282   142424.     70.21  0.000000                                   0.000000   0.000   0.000  -0.000
  98     17.6582287   142424.     70.21  0.000000                                   0.000000  -0.000  -0.000  -0.000
  99     18.4886217   149121.     67.06  0.000000                                   0.000000   0.000  -0.000  -0.000
 100     18.5293804   149450.     66.91  0.000000                                   0.000000  -0.000  -0.000  -0.000
 101     18.5293823   149450.     66.91  0.000000                                   0.000000  -0.000  -0.000  -0.000
 102     18.6722648   150602.     66.40  0.000000                                   0.000000   0.000  -0.000  -0.000
 103     18.8837388   152308.     65.66  0.000000                                   0.000000  -0.000  -0.000   0.000
 104     18.8837390   152308.     65.66  0.000000                                   0.000000  -0.000  -0.000  -0.000
 105     19.1665636   154589.     64.69  1.195566   0.000016  -1.000000   0.000000  0.000000   0.000  -0.000  -0.000
 106     19.1665641   154589.     64.69  1.195566   1.000000   0.000016   0.000000  0.000000   0.000  -0.000  -0.000
 107     19.2356672   155147.     64.46  0.000000                                   0.000000   0.000  -0.000  -0.000
 108     19.2356695   155147.     64.46  0.000000                                   0.000000   0.000  -0.000  -0.000
 109     19.2682142   155409.     64.35  0.000000                                   0.000000  -0.000   0.000  -0.000
 110     19.2682167   155409.     64.35  0.000000                                   0.000000  -0.000  -0.000  -0.000
 111     19.8029263   159722.     62.61  0.000000                                   0.000000  -0.000  -0.000  -0.000
 112     19.9325087   160767.     62.20  0.000000                                   0.000000   0.000  -0.000  -0.000
 113     19.9325088   160767.     62.20  0.000000                                   0.000000  -0.000  -0.000  -0.000
 114     20.0838661   161988.     61.73  0.120537   0.000003  -1.000000  -0.000000  0.000000   0.000  -0.000  -0.000
 115     20.0838666   161988.     61.73  0.120537  -1.000000  -0.000003  -0.000000  0.000000   0.000  -0.000  -0.000
 116     20.0910600   162046.     61.71  0.000000   1.000000   0.000022   0.000000  0.000000  -0.000  -0.000  -0.000
 117     20.4825979   165204.     60.53  0.000000                                   0.000000   0.000  -0.000  -0.000
 118     20.5164803   165477.     60.43  0.000000                                   0.000000   0.000   0.000  -0.000
 119     20.5164813   165477.     60.43  0.000000                                   0.000000  -0.000  -0.000  -0.000
 120     20.6275201   166373.     60.11  0.000000                                   0.000000   0.000  -0.000  -0.000
 121     20.6633990   166662.     60.00  0.000000                                   0.000000  -0.000   0.000  -0.000
 122     20.7817051   167616.     59.66  0.000000                                   0.000000   0.000  -0.000   0.000
 123     20.7817053   167616.     59.66  0.000000                                   0.000000   0.000  -0.000  -0.000
 124     20.8941031   168523.     59.34  0.000000                                   0.000000   0.000  -0.000   0.000
 125     21.0355526   169664.     58.94  0.517000   0.000000   0.000000   1.000000  0.000000   0.000  -0.000   0.000
 126     21.3629750   172304.     58.04  0.084996   1.000000  -0.000022   0.000000  0.000000   0.000  -0.000  -0.000
 127     21.3629761   172304.     58.04  0.084996   0.000022   1.000000   0.000000  0.000000  -0.000  -0.000  -0.000
 128     21.4611372   173096.     57.77  0.000000                                   0.000000   0.000  -0.000  -0.000
 129     21.6008075   174223.     57.40  0.000000                                   0.000000  -0.000   0.000   0.000
 130     21.7765477   175640.     56.93  0.000000                                   0.000000  -0.000  -0.000  -0.000
 131     22.0122586   177541.     56.32  0.042957  -0.000028  -1.000000   0.000000  0.000000   0.000  -0.000  -0.000
 132     22.0122596   177541.     56.32  0.042957   1.000000  -0.000028  -0.000000  0.000000   0.000  -0.000   0.000
 133     22.0291090   177677.     56.28  0.000000                                   0.000000   0.000  -0.000  -0.000
 134     22.0291104   177677.     56.28  0.000000                                   0.000000   0.000  -0.000   0.000
 135     22.0658714   177974.     56.19  0.000000                                   0.000000  -0.000   0.000  -0.000
 136     22.2342930   179332.     55.76  0.000000                                   0.000000  -0.000  -0.000  -0.000
 137     22.7699824   183653.     54.45  0.231711   0.000004   1.000000   0.000000  0.000000  -0.000   0.000  -0.000
 138     22.7699874   183653.     54.45  0.231711  -1.000000   0.000004   0.000000  0.000000  -0.000  -0.000  -0.000
 139     23.0346496   185787.     53.82  0.000000                                   0.000000  -0.000  -0.000  -0.000
 140     23.0346510   185787.     53.82  0.000000                                   0.000000   0.000  -0.000   0.000
 141     23.1422024   186655.     53.57  0.000000                                   0.000000  -0.000  -0.000  -0.000
 142     23.1422065   186655.     53.57  0.000000                                   0.000000  -0.000  -0.000  -0.000
 143     23.8852961   192648.     51.91  0.001214  -0.000001  -1.000000   0.000000  0.000000   0.000  -0.000   0.000
 144     23.8852994   192648.     51.91  0.001214  -1.000000   0.000001  -0.000000  0.000000   0.000  -0.000  -0.000
 145     23.9764340   193383.     51.71  0.000000                                   0.000000  -0.000  -0.000  -0.000
 146     23.9764341   193383.     51.71  0.000000                                   0.000000   0.000  -0.000   0.000
 147     24.3432873   196342.     50.93  0.000000                                   0.000000  -0.000   0.000  -0.000
 148     24.3510573   196405.     50.92  0.000000                                   0.000000   0.000  -0.000  -0.000
 149     24.3510581   196405.     50.92  0.000000                                   0.000000   0.000  -0.000  -0.000
 150     24.6183611   198561.     50.36  0.000000                                   0.000000  -0.000  -0.000  -0.000
 151     24.8925361   200772.     49.81  0.000000                                   0.000000  -0.000  -0.000  -0.000
 152     24.8950960   200793.     49.80  0.000000                                   0.000000  -0.000  -0.000  -0.000
 153     25.2995824   204055.     49.01  0.003519   0.000005   1.000000  -0.000000  0.000000   0.000  -0.000  -0.000
 154     25.2995850   204055.     49.01  0.003519   1.000000  -0.000005   0.000000  0.000000   0.000  -0.000   0.000
 155     25.4426248   205209.     48.73  0.000000                                   0.000000   0.000  -0.000  -0.000
 156     25.4426254   205209.     48.73  0.000000                                   0.000000   0.000  -0.000  -0.000
 157     25.4434160   205216.     48.73  0.000000                                   0.000000  -0.000   0.000  -0.000
 158     26.0740562   210302.     47.55  0.000000                                   0.000000  -0.000  -0.000  -0.000
 159     26.0740609   210302.     47.55  0.000000                                   0.000000   0.000  -0.000  -0.000
 160     26.2983695   212111.     47.15  0.000000                                   0.000000   0.000  -0.000  -0.000
 161     26.4530691   213359.     46.87  0.019519   1.000000  -0.000018   0.000000  0.000000  -0.000  -0.000  -0.000
 162     26.4530695   213359.     46.87  0.019519   0.000018   1.000000  -0.000000  0.000000  -0.000  -0.000  -0.000
 163     26.9320376   217222.     46.04  0.000000                                   0.000000  -0.000  -0.000   0.000
 164     27.8600055   224707.     44.50  0.000000                                   0.000000   0.000  -0.000   0.000
 165     28.1874497   227348.     43.99  0.000000                                   0.000000   0.000   0.000   0.000
 166     28.1874500   227348.     43.99  0.000000                                   0.000000  -0.000  -0.000  -0.000
 167     28.6261331   230886.     43.31  0.000000                                   0.000000   0.000  -0.000  -0.000
 168     28.6285206   230905.     43.31  0.000000                                   0.000000   0.000  -0.000  -0.000
 169     28.7415044   231816.     43.14  0.000000                                   0.000000   0.000  -0.000   0.000
 170     28.7415044   231816.     43.14  0.000000                                   0.000000   0.000  -0.000  -0.000
 171     28.8204393   232453.     43.02  0.102079  -0.000001   1.000000   0.000000  0.000000   0.000  -0.000  -0.000
 172     28.8204436   232453.     43.02  0.102079   1.000000   0.000001  -0.000000  0.000000   0.000  -0.000  -0.000
 173     29.3278186   236545.     42.28  0.000000                                   0.000000  -0.000  -0.000  -0.000
 174     29.4673579   237671.     42.07  0.000000                                   0.000000   0.000  -0.000  -0.000
 175     29.4673581   237671.     42.07  0.000000                                   0.000000  -0.000  -0.000   0.000
 176     29.7787545   240182.     41.64  0.000000                                   0.000000   0.000  -0.000  -0.000
 177     30.3600476   244871.     40.84  0.012493  -0.000016   1.000000   0.000000  0.000000   0.000  -0.000  -0.000
 178     30.3600480   244871.     40.84  0.012493  -1.000000  -0.000016  -0.000000  0.000000  -0.000  -0.000  -0.000
 179     31.0111574   250122.     39.98  0.000000                                   0.000000  -0.000   0.000  -0.000
 180     31.0111625   250123.     39.98  0.000000                                   0.000000  -0.000  -0.000   0.000
 181     31.0367534   250329.     39.95  0.000000                                   0.000000  -0.000   0.000  -0.000
 182     31.4705047   253827.     39.40  0.000000                                   0.000000   0.000  -0.000   0.000
 183     31.4705094   253827.     39.40  0.000000                                   0.000000   0.000  -0.000  -0.000
 184     31.5492600   254463.     39.30  0.000000                                   0.000000  -0.000   0.000   0.000
 185     31.8900705   257211.     38.88  0.078443  -0.000014   1.000000  -0.000000  0.000000  -0.000   0.000   0.000
 186     31.8900706   257211.     38.88  0.078443   1.000000   0.000014  -0.000000  0.000000  -0.000   0.000  -0.000
 187     32.1751070   259510.     38.53  0.000000                                   0.000000  -0.000  -0.000  -0.000
 188     32.3126006   260619.     38.37  0.000000                                   0.000000   0.000  -0.000   0.000
 189     33.0712630   266738.     37.49  0.029651  -1.000000   0.000009  -0.000000  0.000000   0.000  -0.000  -0.000
 190     33.0712637   266738.     37.49  0.029651   0.000009   1.000000   0.000000  0.000000   0.000  -0.000   0.000
 191     33.5486830   270589.     36.96  0.000000                                   0.000000  -0.000   0.000  -0.000
 192     33.5486869   270589.     36.96  0.000000                                   0.000000  -0.000  -0.000  -0.000
 193     33.6979957   271793.     36.79  0.004880   1.000000  -0.000008  -0.000000  0.000000   0.000  -0.000  -0.000
 194     33.6980005   271793.     36.79  0.004880   0.000008   1.000000  -0.000000  0.000000   0.000  -0.000  -0.000
 195     33.8427182   272961.     36.64  0.000000                                   0.000000   0.000  -0.000  -0.000
 196     34.1593695   275515.     36.30  0.000000                                   0.000000   0.000  -0.000  -0.000
 197     34.2385086   276153.     36.21  0.000000                                   0.000000  -0.000  -0.000  -0.000
 198     34.4382178   277764.     36.00  0.000000                                   0.000000  -0.000  -0.000  -0.000
 199     34.4382179   277764.     36.00  0.000000                                   0.000000  -0.000  -0.000  -0.000
 200     36.6587805   295674.     33.82  0.000000                                   0.000000   0.000  -0.000  -0.000
 201     36.6587858   295674.     33.82  0.000000                                   0.000000   0.000  -0.000  -0.000
 202     37.2374836   300341.     33.30  0.000000                                   0.000000   0.000  -0.000  -0.000
 203     37.3314194   301099.     33.21  0.087618   1.000000   0.000018  -0.000000  0.000000  -0.000  -0.000  -0.000
 204     37.3314194   301099.     33.21  0.087618  -0.000018   1.000000  -0.000000  0.000000  -0.000  -0.000  -0.000
 205     37.5235681   302649.     33.04  0.000000                                   0.000000   0.000  -0.000  -0.000
 206     39.2107761   316257.     31.62  0.000000                                   0.000000   0.000  -0.000  -0.000
 207     39.2107779   316257.     31.62  0.000000                                   0.000000   0.000  -0.000   0.000
 208     39.7451815   320567.     31.19  0.000000                                   0.000000   0.000  -0.000  -0.000
 209     39.7483744   320593.     31.19  0.000000                                   0.000000  -0.000  -0.000  -0.000
 210     40.1599809   323913.     30.87  0.000000                                   0.000000   0.000  -0.000  -0.000
 211     40.1599815   323913.     30.87  0.000000                                   0.000000   0.000  -0.000  -0.000
 212     41.0155111   330813.     30.23  0.172652  -0.000007  -1.000000   0.000000  0.000000  -0.000  -0.000  -0.000
 213     41.0155165   330813.     30.23  0.172652  -1.000000   0.000007  -0.000000  0.000000   0.000  -0.000  -0.000
 214     41.5730332   335310.     29.82  0.000000                                   0.000000  -0.000   0.000  -0.000
 215     42.4325355   342242.     29.22  0.000000                                   0.000000   0.000  -0.000   0.000
 216     43.1363607   347919.     28.74  0.000000                                   0.000000  -0.000  -0.000  -0.000
 217     43.1363615   347919.     28.74  0.000000                                   0.000000   0.000   0.000  -0.000
 218     44.1011097   355700.     28.11  0.000000                                   0.000000   0.000  -0.000  -0.000
 219     44.6042258   359758.     27.80  0.012215  -0.000007  -1.000000  -0.000000  0.000000  -0.000  -0.000  -0.000
 220     44.6042283   359758.     27.80  0.012215  -1.000000   0.000007   0.000000  0.000000  -0.000  -0.000  -0.000
 221     47.5122174   383213.     26.10  0.000000                                   0.000000   0.000  -0.000  -0.000
 222     48.2670620   389301.     25.69  0.000000                                   0.000000   0.000  -0.000   0.000
 223     48.2670621   389301.     25.69  0.000000                                   0.000000  -0.000  -0.000  -0.000
 224     50.7681487   409474.     24.42  0.186712  -0.000167   1.000000   0.000000  0.000000   0.000  -0.000  -0.000
 225     50.7681487   409474.     24.42  0.186712   1.000000   0.000167  -0.000000  0.000000   0.000  -0.000  -0.000
 226     51.0014327   411355.     24.31  0.000000                                   0.000000  -0.000   0.000  -0.000
 
 Polarizability (au  ) xx=   72.32 xy=    0.00 yy=   72.32 xz=    0.00 yz=   -0.00 zz=   10.64
 Polarizability (A**3) xx=   10.72 xy=    0.00 yy=   10.72 xz=    0.00 yz=   -0.00 zz=    1.58
 
 
 Major CI contributions to CI states
 
State    1  0.0000     CI coeff  CI percent
    Config       1   1.00000000  1.00000000
 Total coeff printed             1.00000000
  
State    2  4.7083     CI coeff  CI percent
    Config       2  -0.70710706  0.50000039
    Config       3  -0.70710650  0.49999960
 Total coeff printed             0.99999999
  
State    3  5.3612     CI coeff  CI percent
    Config       4  -0.69336511  0.48075517
    Config       5   0.69336203  0.48075091
 Total coeff printed             0.96150608
  
State    4  6.2211     CI coeff  CI percent
    Config       4  -0.68863686  0.47422072
    Config       5  -0.68863995  0.47422498
    Config      33  -0.12015695  0.01443769
 Total coeff printed             0.96288339
  
State    5  6.2211     CI coeff  CI percent
    Config       2  -0.68863811  0.47422245
    Config       3   0.68863868  0.47422323
    Config      32   0.12015702  0.01443771
 Total coeff printed             0.96288339
  
State    6  7.0620     CI coeff  CI percent
    Config       6   0.98743045  0.97501890
    Config      42   0.12898885  0.01663812
 Total coeff printed             0.99165702
  
State    7  7.0621     CI coeff  CI percent
    Config       7  -0.98743044  0.97501888
    Config      43   0.12898895  0.01663815
 Total coeff printed             0.99165703
  
State    8  7.5044     CI coeff  CI percent
    Config      14   0.97734809  0.95520929
 Total coeff printed             0.95520929
  
State    9  7.5044     CI coeff  CI percent
    Config      15  -0.97734806  0.95520922
 Total coeff printed             0.95520922
  
State   10  7.7174     CI coeff  CI percent
    Config       8  -0.68685247  0.47176631
    Config       9   0.68682508  0.47172869
    Config      34  -0.23122331  0.05346422
 Total coeff printed             0.99695922
  
State   11  7.7721     CI coeff  CI percent
    Config      16  -0.69325617  0.48060412
    Config      17   0.69320943  0.48053932
    Config      50  -0.18358270  0.03370261
 Total coeff printed             0.99484605
  
State   12  7.7721     CI coeff  CI percent
    Config      12  -0.69325567  0.48060342
    Config      13  -0.69320999  0.48054009
    Config      51  -0.18358252  0.03370254
 Total coeff printed             0.99484605
  
State   13  7.7916     CI coeff  CI percent
    Config      16  -0.69616423  0.48464463
    Config      17  -0.69621082  0.48470950
    Config      69  -0.15808431  0.02499065
 Total coeff printed             0.99434478
  
State   14  7.8037     CI coeff  CI percent
    Config       8   0.69163882  0.47836426
    Config       9   0.69166596  0.47840180
    Config      19  -0.14172026  0.02008463
    Config      63  -0.12988793  0.01687087
 Total coeff printed             0.99372157
  
State   15  7.8037     CI coeff  CI percent
    Config      10   0.69165546  0.47838727
    Config      11  -0.69164920  0.47837862
    Config      18   0.14172097  0.02008483
    Config      64  -0.12988777  0.01687083
 Total coeff printed             0.99372156
  
State   16  7.8310     CI coeff  CI percent
    Config      12  -0.70091080  0.49127595
    Config      13   0.70095594  0.49133923
    Config      75  -0.11999306  0.01439833
 Total coeff printed             0.99701351
  
State   17  7.9390     CI coeff  CI percent
    Config      10  -0.70550186  0.49773287
    Config      11  -0.70550798  0.49774151
 Total coeff printed             0.99547438
  
State   18  9.1416     CI coeff  CI percent
    Config      18   0.88862661  0.78965724
    Config      26  -0.30729468  0.09443002
    Config      30  -0.15349828  0.02356172
    Config      31  -0.15349770  0.02356154
    Config      64  -0.13286281  0.01765253
 Total coeff printed             0.94886305
  
State   19  9.1416     CI coeff  CI percent
    Config      19  -0.88862614  0.78965641
    Config      27   0.30729563  0.09443060
    Config      28  -0.15349868  0.02356184
    Config      29   0.15349823  0.02356171
    Config      63  -0.13286276  0.01765251
 Total coeff printed             0.94886308
  
State   20  9.3071     CI coeff  CI percent
    Config      18   0.38187809  0.14583087
    Config      26   0.72177461  0.52095859
    Config      30   0.35954522  0.12927277
    Config      31   0.35954375  0.12927171
    Config      45   0.20020805  0.04008326
    Config      52   0.15078858  0.02273720
 Total coeff printed             0.98815440
  
State   21  9.3071     CI coeff  CI percent
    Config      19  -0.38187938  0.14583186
    Config      27  -0.72177414  0.52095790
    Config      28   0.35954501  0.12927262
    Config      29  -0.35954338  0.12927144
    Config      44  -0.20020840  0.04008340
    Config      53   0.15078851  0.02273718
 Total coeff printed             0.98815440
  
State   22  9.3227     CI coeff  CI percent
    Config      20   0.68123395  0.46407970
    Config      21  -0.68123419  0.46408003
    Config      56  -0.25435551  0.06469673
 Total coeff printed             0.99285645
  
State   23  9.5039     CI coeff  CI percent
    Config      14  -0.12129645  0.01471283
    Config      24  -0.96718159  0.93544022
    Config      35   0.10779702  0.01162020
    Config      36  -0.10779694  0.01162018
 Total coeff printed             0.97339343
  
State   24  9.5039     CI coeff  CI percent
    Config      15  -0.12129670  0.01471289
    Config      25   0.96718158  0.93544020
    Config      37  -0.10779707  0.01162021
    Config      38  -0.10779679  0.01162015
 Total coeff printed             0.97339344
  
State   25  9.5329     CI coeff  CI percent
    Config      20   0.67363247  0.45378070
    Config      21   0.67363215  0.45378027
    Config      40   0.16203081  0.02625398
    Config      43  -0.23055235  0.05315439
 Total coeff printed             0.98696935
  
State   26  9.5329     CI coeff  CI percent
    Config      22   0.67363741  0.45378736
    Config      23  -0.67362714  0.45377353
    Config      39  -0.16203096  0.02625403
    Config      42  -0.23055244  0.05315443
 Total coeff printed             0.98696935
  
State   27  9.8503     CI coeff  CI percent
    Config      22  -0.69954961  0.48936966
    Config      23  -0.69955935  0.48938328
 Total coeff printed             0.97875294
  
State   28 10.2831     CI coeff  CI percent
    Config      28   0.69628650  0.48481489
    Config      29   0.69628419  0.48481167
    Config     129  -0.12022502  0.01445406
 Total coeff printed             0.98408061
  
State   29 11.0898     CI coeff  CI percent
    Config      32  -0.98207574  0.96447276
 Total coeff printed             0.96447276
  
State   30 11.0898     CI coeff  CI percent
    Config      33  -0.98207575  0.96447278
 Total coeff printed             0.96447278
  
State   31 11.1841     CI coeff  CI percent
    Config      30  -0.70693108  0.49975156
    Config      31   0.70692723  0.49974611
 Total coeff printed             0.99949767
  
State   32 11.4789     CI coeff  CI percent
    Config      27   0.50576023  0.25579341
    Config      28   0.58173719  0.33841816
    Config      29  -0.58174077  0.33842233
    Config      44   0.25514816  0.06510058
 Total coeff printed             0.99773447
  
State   33 11.4789     CI coeff  CI percent
    Config      26  -0.50576082  0.25579401
    Config      30   0.58173617  0.33841697
    Config      31   0.58174180  0.33842353
    Config      45  -0.25514696  0.06509997
 Total coeff printed             0.99773448
  
State   34 11.5192     CI coeff  CI percent
    Config      35  -0.69375415  0.48129482
    Config      36  -0.69375075  0.48129011
    Config      74   0.13797364  0.01903673
 Total coeff printed             0.98162165
  
State   35 11.6795     CI coeff  CI percent
    Config      41  -0.97502080  0.95066556
 Total coeff printed             0.95066556
  
State   36 11.6998     CI coeff  CI percent
    Config       8   0.14208941  0.02018940
    Config       9  -0.14208952  0.02018943
    Config      34  -0.83799438  0.70223457
    Config      46   0.32524478  0.10578417
    Config      47   0.32524398  0.10578364
    Config      83   0.18896294  0.03570699
 Total coeff printed             0.98988821
  
State   37 11.8453     CI coeff  CI percent
    Config      37  -0.69556172  0.48380611
    Config      38   0.69546791  0.48367562
 Total coeff printed             0.96748172
  
State   38 11.8724     CI coeff  CI percent
    Config      24  -0.16260326  0.02643982
    Config      35  -0.68045995  0.46302575
    Config      36   0.68046350  0.46303058
    Config      61   0.13457422  0.01811022
 Total coeff printed             0.97060637
  
State   39 11.8724     CI coeff  CI percent
    Config      25   0.16260319  0.02643980
    Config      37   0.68041385  0.46296301
    Config      38   0.68050970  0.46309345
    Config      62  -0.13457396  0.01811015
 Total coeff printed             0.97060641
  
State   40 11.9002     CI coeff  CI percent
    Config      22  -0.10559071  0.01114940
    Config      23   0.10559109  0.01114948
    Config      39  -0.94799523  0.89869496
    Config      70   0.10825161  0.01171841
    Config      71   0.10825169  0.01171843
    Config      97  -0.20202235  0.04081303
 Total coeff printed             0.98524370
  
State   41 11.9002     CI coeff  CI percent
    Config      20   0.10559089  0.01114944
    Config      21   0.10559074  0.01114941
    Config      40  -0.94799520  0.89869490
    Config      72   0.10825185  0.01171846
    Config      73  -0.10825169  0.01171843
    Config      96  -0.20202254  0.04081311
 Total coeff printed             0.98524374
  
State   42 11.9720     CI coeff  CI percent
    Config      34   0.49001934  0.24011895
    Config      46   0.58637569  0.34383644
    Config      47   0.58637405  0.34383453
    Config      83   0.23667511  0.05601511
 Total coeff printed             0.98380503
  
State   43 12.5261     CI coeff  CI percent
    Config       6  -0.10764316  0.01158705
    Config      22   0.17669121  0.03121979
    Config      23  -0.17669152  0.03121989
    Config      42   0.94394675  0.89103546
 Total coeff printed             0.96506219
  
State   44 12.5261     CI coeff  CI percent
    Config       7  -0.10764327  0.01158707
    Config      20  -0.17669106  0.03121973
    Config      21  -0.17669153  0.03121990
    Config      43  -0.94394678  0.89103553
 Total coeff printed             0.96506223
  
State   45 12.5960     CI coeff  CI percent
    Config      18   0.14915825  0.02224818
    Config      45   0.24303632  0.05906665
    Config      48   0.65258484  0.42586698
    Config      49   0.65258110  0.42586209
    Config      64   0.18582480  0.03453086
    Config     110  -0.11050457  0.01221126
 Total coeff printed             0.97978601
  
State   46 12.5960     CI coeff  CI percent
    Config      19  -0.14915824  0.02224818
    Config      44  -0.24303967  0.05906828
    Config      46  -0.65258139  0.42586248
    Config      47   0.65258305  0.42586464
    Config      63   0.18582459  0.03453078
    Config     111   0.11050448  0.01221124
 Total coeff printed             0.97978560
  
State   47 12.6688     CI coeff  CI percent
    Config      27   0.25198495  0.06349642
    Config      44  -0.86856197  0.75439989
    Config      46   0.17942361  0.03219283
    Config      47  -0.17942389  0.03219293
    Config      53  -0.29153046  0.08499001
 Total coeff printed             0.96727208
  
State   48 12.6688     CI coeff  CI percent
    Config      26   0.25198409  0.06349598
    Config      45  -0.86856305  0.75440178
    Config      48   0.17942172  0.03219215
    Config      49   0.17942070  0.03219179
    Config      52   0.29153171  0.08499074
 Total coeff printed             0.96727244
  
State   49 13.0865     CI coeff  CI percent
    Config      54  -0.97252572  0.94580628
    Config      84  -0.10046600  0.01009342
    Config      85  -0.10046568  0.01009335
 Total coeff printed             0.96599305
  
State   50 13.0865     CI coeff  CI percent
    Config      55  -0.97252568  0.94580619
    Config      86   0.10046574  0.01009337
    Config      87  -0.10046580  0.01009338
 Total coeff printed             0.96599293
  
State   51 13.1284     CI coeff  CI percent
    Config      57   0.63244418  0.39998564
    Config      58   0.63243768  0.39997742
    Config      65  -0.29660274  0.08797318
    Config      66   0.29660151  0.08797246
    Config      98   0.14254650  0.02031951
 Total coeff printed             0.99622820
  
State   52 13.1740     CI coeff  CI percent
    Config      48  -0.70550828  0.49774193
    Config      49   0.70551185  0.49774697
 Total coeff printed             0.99548891
  
State   53 13.2189     CI coeff  CI percent
    Config      16   0.13158868  0.01731558
    Config      17  -0.13158818  0.01731545
    Config      50  -0.96645607  0.93403733
    Config     104   0.14712976  0.02164717
 Total coeff printed             0.99031552
  
State   54 13.2189     CI coeff  CI percent
    Config      12   0.13158824  0.01731547
    Config      13   0.13158838  0.01731550
    Config      51  -0.96645611  0.93403741
    Config     105   0.14712988  0.02164720
 Total coeff printed             0.99031558
  
State   55 13.3999     CI coeff  CI percent
    Config      26   0.23935773  0.05729212
    Config      45  -0.26063828  0.06793231
    Config      52  -0.92881620  0.86269952
 Total coeff printed             0.98792396
  
State   56 13.3999     CI coeff  CI percent
    Config      27  -0.23935780  0.05729215
    Config      44   0.26063718  0.06793174
    Config      53  -0.92881645  0.86270000
 Total coeff printed             0.98792389
  
State   57 13.6460     CI coeff  CI percent
    Config      59  -0.67193638  0.45149850
    Config      60   0.67189392  0.45144144
    Config      67  -0.18905827  0.03574303
    Config      68  -0.18906081  0.03574399
 Total coeff printed             0.97442696
  
State   58 13.6496     CI coeff  CI percent
    Config      57  -0.66471353  0.44184407
    Config      58   0.66471947  0.44185197
    Config      79  -0.17821224  0.03175960
    Config      81  -0.21340232  0.04554055
 Total coeff printed             0.96099620
  
State   59 13.6496     CI coeff  CI percent
    Config      59  -0.66469526  0.44181979
    Config      60  -0.66473802  0.44187663
    Config      80  -0.17821194  0.03175949
    Config      82   0.21340218  0.04554049
 Total coeff printed             0.96099640
  
State   60 13.8493     CI coeff  CI percent
    Config      20   0.18359414  0.03370681
    Config      21  -0.18359403  0.03370677
    Config      56   0.91295124  0.83347997
    Config      72   0.22172702  0.04916287
    Config      73   0.22172705  0.04916288
 Total coeff printed             0.99921930
  
State   61 13.9481     CI coeff  CI percent
    Config      35  -0.10387357  0.01078972
    Config      36   0.10387297  0.01078959
    Config      61  -0.97697225  0.95447478
 Total coeff printed             0.97605410
  
State   62 13.9481     CI coeff  CI percent
    Config      37   0.10387298  0.01078960
    Config      38   0.10387310  0.01078962
    Config      62   0.97697228  0.95447484
 Total coeff printed             0.97605405
  
State   63 14.3205     CI coeff  CI percent
    Config      19  -0.11804814  0.01393536
    Config      46   0.12764997  0.01629451
    Config      47  -0.12765019  0.01629457
    Config      63   0.90098073  0.81176628
    Config      76   0.32271394  0.10414429
    Config     111  -0.11604821  0.01346719
 Total coeff printed             0.97590220
  
State   64 14.3205     CI coeff  CI percent
    Config      18  -0.11804826  0.01393539
    Config      48   0.12764957  0.01629441
    Config      49   0.12765030  0.01629460
    Config      64  -0.90098078  0.81176636
    Config      77  -0.32271404  0.10414435
    Config     110  -0.11604826  0.01346720
 Total coeff printed             0.97590231
  
State   65 14.6431     CI coeff  CI percent
    Config      67  -0.69393643  0.48154777
    Config      68   0.69391342  0.48151583
    Config      90  -0.10138142  0.01027819
 Total coeff printed             0.97334180
  
State   66 14.6431     CI coeff  CI percent
    Config      65   0.69393835  0.48155044
    Config      66   0.69391137  0.48151299
    Config      91  -0.10138138  0.01027818
 Total coeff printed             0.97334161
  
State   67 14.7200     CI coeff  CI percent
    Config      69   0.48791031  0.23805647
    Config      70   0.58885629  0.34675173
    Config      71  -0.58885203  0.34674671
    Config     118  -0.19123017  0.03656898
 Total coeff printed             0.96812389
  
State   68 14.7316     CI coeff  CI percent
    Config      57   0.28671128  0.08220336
    Config      58   0.28671434  0.08220511
    Config      65   0.63453670  0.40263682
    Config      66  -0.63456647  0.40267461
    Config      98   0.10313705  0.01063725
 Total coeff printed             0.98035714
  
State   69 14.8319     CI coeff  CI percent
    Config      59  -0.19542656  0.03819154
    Config      60   0.19542454  0.03819075
    Config      67   0.66969502  0.44849142
    Config      68   0.66971925  0.44852387
 Total coeff printed             0.97339758
  
State   70 14.9612     CI coeff  CI percent
    Config      69   0.84311443  0.71084195
    Config      70  -0.34763497  0.12085007
    Config      71   0.34762741  0.12084482
    Config     118   0.10122434  0.01024637
 Total coeff printed             0.96278320
  
State   71 15.0545     CI coeff  CI percent
    Config      39   0.19333022  0.03737658
    Config      42  -0.16436840  0.02701697
    Config      70   0.65512636  0.42919055
    Config      71   0.65513411  0.42920071
    Config      97  -0.27533983  0.07581202
 Total coeff printed             0.99859682
  
State   72 15.0545     CI coeff  CI percent
    Config      40   0.19333044  0.03737666
    Config      43   0.16436847  0.02701699
    Config      72   0.65513203  0.42919798
    Config      73  -0.65512837  0.42919318
    Config      96  -0.27533981  0.07581201
 Total coeff printed             0.99859682
  
State   73 15.4929     CI coeff  CI percent
    Config      56   0.21110171  0.04456393
    Config      72  -0.49923591  0.24923649
    Config      73  -0.49923882  0.24923940
    Config      75   0.65963537  0.43511882
 Total coeff printed             0.97815865
  
State   74 15.5841     CI coeff  CI percent
    Config      74   0.96300396  0.92737662
    Config      84  -0.12089388  0.01461533
    Config      85   0.12089289  0.01461509
    Config      88  -0.10094771  0.01019044
    Config      89   0.10094726  0.01019035
 Total coeff printed             0.97698783
  
State   75 15.6465     CI coeff  CI percent
    Config      56   0.23798743  0.05663802
    Config      72  -0.44725557  0.20003755
    Config      73  -0.44725757  0.20003933
    Config      75  -0.72461131  0.52506155
 Total coeff printed             0.98177645
  
State   76 15.8191     CI coeff  CI percent
    Config      78  -0.91030389  0.82865316
    Config      86  -0.17157637  0.02943845
    Config      87  -0.17157545  0.02943814
    Config      94  -0.19980882  0.03992356
    Config      95  -0.19980829  0.03992335
 Total coeff printed             0.96737667
  
State   77 15.9331     CI coeff  CI percent
    Config      63  -0.31922499  0.10190459
    Config      76   0.91797697  0.84268171
    Config     111  -0.18251468  0.03331161
 Total coeff printed             0.97789791
  
State   78 15.9331     CI coeff  CI percent
    Config      64   0.31922513  0.10190468
    Config      77  -0.91797688  0.84268156
    Config     110  -0.18251489  0.03331169
 Total coeff printed             0.97789793
  
State   79 15.9649     CI coeff  CI percent
    Config      57   0.18637617  0.03473608
    Config      58  -0.18637649  0.03473619
    Config      79  -0.11823502  0.01397952
    Config      81  -0.82081196  0.67373228
    Config      91   0.43673480  0.19073729
    Config      92  -0.14764379  0.02179869
 Total coeff printed             0.96972004
  
State   80 15.9649     CI coeff  CI percent
    Config      59   0.18637606  0.03473603
    Config      60   0.18637618  0.03473608
    Config      80  -0.11823451  0.01397940
[...]
    Config     149   0.43551191  0.18967063
    Config     150  -0.43551304  0.18967161
    Config     158   0.30061684  0.09037048
    Config     165   0.16509484  0.02725631
 Total coeff printed             0.95913150
  
State  156 25.4426     CI coeff  CI percent
    Config     108  -0.10280845  0.01056958
    Config     133   0.15883448  0.02522839
    Config     134  -0.15883507  0.02522858
    Config     145  -0.40118822  0.16095199
    Config     148  -0.49008652  0.24018479
    Config     151   0.43551110  0.18966992
    Config     152   0.43551354  0.18967204
    Config     159  -0.30061579  0.09036985
    Config     166   0.16509482  0.02725630
 Total coeff printed             0.95913144
  
State  157 25.4434     CI coeff  CI percent
    Config     157  -0.90822922  0.82488032
    Config     162  -0.22110439  0.04888715
    Config     163  -0.22110288  0.04888648
    Config     164  -0.17133421  0.02935541
 Total coeff printed             0.95200936
  
State  158 26.0741     CI coeff  CI percent
    Config     149  -0.17532277  0.03073807
    Config     150   0.17532241  0.03073795
    Config     158   0.93190034  0.86843824
    Config     165  -0.14275155  0.02037800
 Total coeff printed             0.95029226
  
State  159 26.0741     CI coeff  CI percent
    Config     151  -0.17532133  0.03073757
    Config     152  -0.17532172  0.03073771
    Config     159  -0.93190073  0.86843898
    Config     166  -0.14275189  0.02037810
 Total coeff printed             0.95029236
  
State  160 26.2984     CI coeff  CI percent
    Config     156   0.33477096  0.11207159
    Config     160  -0.65947294  0.43490456
    Config     161   0.65946602  0.43489543
 Total coeff printed             0.98187158
  
State  161 26.4531     CI coeff  CI percent
    Config     160  -0.69880489  0.48832827
    Config     161  -0.69881154  0.48833757
 Total coeff printed             0.97666584
  
State  162 26.4531     CI coeff  CI percent
    Config     162  -0.69881113  0.48833699
    Config     163   0.69880530  0.48832885
 Total coeff printed             0.97666584
  
State  163 26.9320     CI coeff  CI percent
    Config     116  -0.10075245  0.01015106
    Config     117   0.10075256  0.01015108
    Config     157   0.10600364  0.01123677
    Config     162  -0.52349203  0.27404390
    Config     163  -0.52349901  0.27405122
    Config     164   0.64213264  0.41233433
 Total coeff printed             0.99196836
  
State  164 27.8600     CI coeff  CI percent
    Config     157   0.28348833  0.08036563
    Config     162  -0.39658948  0.15728321
    Config     163  -0.39659142  0.15728476
    Config     164  -0.71809885  0.51566596
    Config     188  -0.10517597  0.01106198
    Config     189   0.10517576  0.01106194
    Config     190   0.13005239  0.01691362
    Config     191   0.13005222  0.01691358
 Total coeff printed             0.96655069
  
State  165 28.1874     CI coeff  CI percent
    Config     147   0.13278474  0.01763179
    Config     165  -0.94593601  0.89479494
    Config     183  -0.12974743  0.01683440
 Total coeff printed             0.92926112
  
State  166 28.1875     CI coeff  CI percent
    Config     148  -0.13278472  0.01763178
    Config     166  -0.94593590  0.89479473
    Config     182   0.12974765  0.01683445
 Total coeff printed             0.92926097
  
State  167 28.6261     CI coeff  CI percent
    Config     169   0.70410368  0.49576199
    Config     170   0.70406239  0.49570385
 Total coeff printed             0.99146584
  
State  168 28.6285     CI coeff  CI percent
    Config     167   0.70697328  0.49981121
    Config     168  -0.70695203  0.49978117
 Total coeff printed             0.99959238
  
State  169 28.7415     CI coeff  CI percent
    Config     142   0.13474990  0.01815754
    Config     167  -0.70045485  0.49063700
    Config     168  -0.70047631  0.49066707
 Total coeff printed             0.99946161
  
State  170 28.7415     CI coeff  CI percent
    Config     141   0.13474975  0.01815750
    Config     169  -0.70044485  0.49062298
    Config     170   0.70048635  0.49068113
 Total coeff printed             0.99946161
  
State  171 28.8204     CI coeff  CI percent
    Config     171  -0.98436622  0.96897686
 Total coeff printed             0.96897686
  
State  172 28.8204     CI coeff  CI percent
    Config     172   0.98436623  0.96897687
 Total coeff printed             0.96897687
  
State  173 29.3278     CI coeff  CI percent
    Config     173   0.69839909  0.48776128
    Config     174   0.69838219  0.48773768
 Total coeff printed             0.97549896
  
State  174 29.4674     CI coeff  CI percent
    Config     165  -0.11594451  0.01344313
    Config     175   0.69262670  0.47973174
    Config     176   0.69261540  0.47971609
 Total coeff printed             0.97289096
  
State  175 29.4674     CI coeff  CI percent
    Config     166  -0.11594475  0.01344318
    Config     173  -0.69261248  0.47971205
    Config     174   0.69262956  0.47973570
 Total coeff printed             0.97289093
  
State  176 29.7788     CI coeff  CI percent
    Config     175   0.69829262  0.48761259
    Config     176  -0.69830389  0.48762833
 Total coeff printed             0.97524091
  
State  177 30.3600     CI coeff  CI percent
    Config     177   0.97267685  0.94610025
 Total coeff printed             0.94610025
  
State  178 30.3600     CI coeff  CI percent
    Config     178  -0.97267680  0.94610015
 Total coeff printed             0.94610015
  
State  179 31.0112     CI coeff  CI percent
    Config     180  -0.99425594  0.98854488
 Total coeff printed             0.98854488
  
State  180 31.0112     CI coeff  CI percent
    Config     181  -0.99425594  0.98854487
 Total coeff printed             0.98854487
  
State  181 31.0368     CI coeff  CI percent
    Config     179  -0.99016100  0.98041880
 Total coeff printed             0.98041880
  
State  182 31.4705     CI coeff  CI percent
    Config     182   0.91681872  0.84055657
    Config     192  -0.35109556  0.12326809
 Total coeff printed             0.96382467
  
State  183 31.4705     CI coeff  CI percent
    Config     183   0.91681874  0.84055660
    Config     193   0.35109555  0.12326809
 Total coeff printed             0.96382469
  
State  184 31.5493     CI coeff  CI percent
    Config     184  -0.58021914  0.33665425
    Config     185  -0.58021280  0.33664689
    Config     186  -0.38220328  0.14607935
    Config     187   0.38219787  0.14607521
 Total coeff printed             0.96545570
  
State  185 31.8901     CI coeff  CI percent
    Config     188   0.49640532  0.24641824
    Config     189   0.49639565  0.24640864
    Config     190   0.49585516  0.24587234
    Config     191  -0.49584780  0.24586504
 Total coeff printed             0.98456426
  
State  186 31.8901     CI coeff  CI percent
    Config     184  -0.49639683  0.24640981
    Config     185   0.49640412  0.24641705
    Config     186  -0.49584956  0.24586679
    Config     187  -0.49585344  0.24587064
 Total coeff printed             0.98456429
  
State  187 32.1751     CI coeff  CI percent
    Config     188  -0.58540775  0.34270224
    Config     189   0.58541643  0.34271239
    Config     190  -0.38859065  0.15100269
    Config     191  -0.38859908  0.15100925
 Total coeff printed             0.98742657
  
State  188 32.3126     CI coeff  CI percent
    Config     184   0.38718984  0.14991597
    Config     185   0.38718653  0.14991341
    Config     186  -0.58802700  0.34577575
    Config     187   0.58802473  0.34577308
 Total coeff printed             0.99137822
  
State  189 33.0713     CI coeff  CI percent
    Config     178  -0.17545219  0.03078347
    Config     184   0.48463973  0.23487567
    Config     185  -0.48464251  0.23487836
    Config     186  -0.48888858  0.23901204
    Config     187  -0.48889162  0.23901502
 Total coeff printed             0.97856456
  
State  190 33.0713     CI coeff  CI percent
    Config     177   0.17545203  0.03078342
    Config     188   0.48464218  0.23487804
    Config     189   0.48464003  0.23487596
    Config     190  -0.48889162  0.23901501
    Config     191   0.48888868  0.23901214
 Total coeff printed             0.97856457
  
State  191 33.5487     CI coeff  CI percent
    Config     182   0.28731512  0.08254998
    Config     192   0.88146810  0.77698601
    Config     198   0.22583031  0.05099933
    Config     199   0.22582755  0.05099808
 Total coeff printed             0.96153340
  
State  192 33.5487     CI coeff  CI percent
    Config     183   0.28731493  0.08254987
    Config     193  -0.88146789  0.77698563
    Config     196   0.22583010  0.05099923
    Config     197  -0.22582911  0.05099879
 Total coeff printed             0.96153353
  
State  193 33.6980     CI coeff  CI percent
    Config     194  -0.99286254  0.98577603
 Total coeff printed             0.98577603
  
State  194 33.6980     CI coeff  CI percent
    Config     195   0.99286257  0.98577608
 Total coeff printed             0.98577608
  
State  195 33.8427     CI coeff  CI percent
    Config     157  -0.14062143  0.01977439
    Config     164   0.13747179  0.01889849
    Config     188  -0.37035749  0.13716467
    Config     189   0.37035980  0.13716638
    Config     190   0.55465296  0.30763990
    Config     191   0.55465590  0.30764317
 Total coeff printed             0.92828700
  
State  196 34.1594     CI coeff  CI percent
    Config     196  -0.70261521  0.49366814
    Config     197  -0.70261088  0.49366205
 Total coeff printed             0.98733019
  
State  197 34.2385     CI coeff  CI percent
    Config     198  -0.70270550  0.49379502
    Config     199   0.70268353  0.49376415
 Total coeff printed             0.98755917
  
State  198 34.4382     CI coeff  CI percent
    Config     183   0.17856582  0.03188575
    Config     193  -0.24249224  0.05880249
    Config     196  -0.65729304  0.43203414
    Config     197   0.65729801  0.43204068
    Config     201   0.10053255  0.01010679
 Total coeff printed             0.96486985
  
State  199 34.4382     CI coeff  CI percent
    Config     182  -0.17856531  0.03188557
    Config     192  -0.24249137  0.05880206
    Config     198   0.65728354  0.43202165
    Config     199   0.65730799  0.43205379
    Config     200  -0.10053258  0.01010680
 Total coeff printed             0.96486987
  
State  200 36.6588     CI coeff  CI percent
    Config     200   0.98393985  0.96813763
 Total coeff printed             0.96813763
  
State  201 36.6588     CI coeff  CI percent
    Config     201  -0.98393985  0.96813763
 Total coeff printed             0.96813763
  
State  202 37.2375     CI coeff  CI percent
    Config     202  -0.70081709  0.49114459
    Config     203  -0.70077467  0.49108513
 Total coeff printed             0.98222972
  
State  203 37.3314     CI coeff  CI percent
    Config     202   0.70078897  0.49110518
    Config     203  -0.70083140  0.49116465
 Total coeff printed             0.98226983
  
State  204 37.3314     CI coeff  CI percent
    Config     204   0.70081919  0.49114753
    Config     205   0.70080118  0.49112229
 Total coeff printed             0.98226982
  
State  205 37.5236     CI coeff  CI percent
    Config     204  -0.69102414  0.47751436
    Config     205   0.69104237  0.47753955
    Config     215  -0.12189674  0.01485882
 Total coeff printed             0.96991273
  
State  206 39.2108     CI coeff  CI percent
    Config     206  -0.99735854  0.99472405
 Total coeff printed             0.99472405
  
State  207 39.2108     CI coeff  CI percent
    Config     207   0.99735853  0.99472404
 Total coeff printed             0.99472404
  
State  208 39.7452     CI coeff  CI percent
    Config     210   0.70452244  0.49635187
    Config     211   0.70451330  0.49633899
 Total coeff printed             0.99269087
  
State  209 39.7484     CI coeff  CI percent
    Config     208  -0.70353177  0.49495696
    Config     209   0.70352252  0.49494394
 Total coeff printed             0.98990090
  
State  210 40.1600     CI coeff  CI percent
    Config     210   0.69445660  0.48226996
    Config     211  -0.69446585  0.48228281
    Config     216  -0.12470350  0.01555096
 Total coeff printed             0.98010374
  
State  211 40.1600     CI coeff  CI percent
    Config     208   0.69445653  0.48226988
    Config     209   0.69446589  0.48228287
    Config     217   0.12470348  0.01555096
 Total coeff printed             0.98010371
  
State  212 41.0155     CI coeff  CI percent
    Config     212  -0.99163625  0.98334246
 Total coeff printed             0.98334246
  
State  213 41.0155     CI coeff  CI percent
    Config     213  -0.99163626  0.98334248
 Total coeff printed             0.98334248
  
State  214 41.5730     CI coeff  CI percent
    Config     214  -0.99778949  0.99558387
 Total coeff printed             0.99558387
  
State  215 42.4325     CI coeff  CI percent
    Config     215  -0.98184817  0.96402582
 Total coeff printed             0.96402582
  
State  216 43.1364     CI coeff  CI percent
    Config     216   0.98225872  0.96483220
 Total coeff printed             0.96483220
  
State  217 43.1364     CI coeff  CI percent
    Config     217  -0.98225873  0.96483221
 Total coeff printed             0.96483221
  
State  218 44.1011     CI coeff  CI percent
    Config     218  -0.99501871  0.99006223
 Total coeff printed             0.99006223
  
State  219 44.6042     CI coeff  CI percent
    Config     219   0.99633576  0.99268495
 Total coeff printed             0.99268495
  
State  220 44.6042     CI coeff  CI percent
    Config     220  -0.99633577  0.99268496
 Total coeff printed             0.99268496
  
State  221 47.5122     CI coeff  CI percent
    Config     221   0.99261258  0.98527974
 Total coeff printed             0.98527974
  
State  222 48.2671     CI coeff  CI percent
    Config     222   0.99298636  0.98602191
 Total coeff printed             0.98602191
  
State  223 48.2671     CI coeff  CI percent
    Config     223   0.99298636  0.98602191
 Total coeff printed             0.98602191
  
State  224 50.7681     CI coeff  CI percent
    Config     224  -0.99785168  0.99570798
 Total coeff printed             0.99570798
  
State  225 50.7681     CI coeff  CI percent
    Config     225  -0.99785168  0.99570798
 Total coeff printed             0.99570798
  
State  226 51.0014     CI coeff  CI percent
    Config     226   0.99832729  0.99665737
 Total coeff printed             0.99665737
  

 -------------------------------------------------------------------------------
 INDO CIS WRTCONF=0.1
 benzene



     NO PARAMETERS MARKED FOR OPTIMIZATION, SO 1SCF WAS USED  
     SCF FIELD WAS ACHIEVED                                   


                              INDO CALCULATION
                                                       MOPAC2016 (Version: 20.173L)
                                                       Wed Oct 11 11:36:48 2023




          FINAL HEAT OF FORMATION =     -22252.39899 KCAL/MOL =  -93104.03738 KJ/MOL


          TOTAL ENERGY            =      -1022.97528 EV
          ELECTRONIC ENERGY       =      -2890.00375 EV  POINT GROUP:     D6h 
          CORE-CORE REPULSION     =       1867.02847 EV
          COSMO AREA              =        120.08 SQUARE ANGSTROMS
          COSMO VOLUME            =        108.57 CUBIC ANGSTROMS

          IONIZATION POTENTIAL    =          8.966811 EV
          HOMO LUMO ENERGIES (EV) =         -8.967  0.842
          NO. OF FILLED LEVELS    =         15
          MOLECULAR WEIGHT        =         78.1134

          MOLECULAR DIMENSIONS (Angstroms)

            Atom       Atom       Distance
            H     2    H     1     4.96842
            H     4    H     3     4.30278
            H     1    H     2     0.00000


          SCF CALCULATIONS        =          1
 
          WALL-CLOCK TIME         =          0.437 SECONDS
          COMPUTATION TIME        =          4.639 SECONDS




   ATOM   CHEMICAL          X               Y               Z
  NUMBER   SYMBOL      (ANGSTROMS)     (ANGSTROMS)     (ANGSTROMS)
 
     1       H          0.00000000      2.48421200      0.00000000   
     2       H          0.00000000     -2.48421200      0.00000000   
     3       H          2.15139000      1.24210600      0.00000000   
     4       H         -2.15139000     -1.24210600      0.00000000   
     5       H         -2.15139000      1.24210600      0.00000000   
     6       H          2.15139000     -1.24210600      0.00000000   
     7       C          0.00000000      1.39679200      0.00000000   
     8       C          0.00000000     -1.39679200      0.00000000   
     9       C          1.20965700      0.69839600      0.00000000   
    10       C         -1.20965700     -0.69839600      0.00000000   
    11       C         -1.20965700      0.69839600      0.00000000   
    12       C          1.20965700     -0.69839600      0.00000000   

                             CARTESIAN COORDINATES

   1    H        0.000000000     2.484212000     0.000000000
   2    H        0.000000000    -2.484212000     0.000000000
   3    H        2.151390000     1.242106000     0.000000000
   4    H       -2.151390000    -1.242106000     0.000000000
   5    H       -2.151390000     1.242106000     0.000000000
   6    H        2.151390000    -1.242106000     0.000000000
   7    C        0.000000000     1.396792000     0.000000000
   8    C        0.000000000    -1.396792000     0.000000000
   9    C        1.209657000     0.698396000     0.000000000
  10    C       -1.209657000    -0.698396000     0.000000000
  11    C       -1.209657000     0.698396000     0.000000000
  12    C        1.209657000    -0.698396000     0.000000000


           Empirical Formula: C6 H6  =    12 atoms



      MOLECULAR POINT GROUP   :   D6h 


                  EIGENVALUES  
 -43.49882 -32.89454 -32.89454 -25.17473 -25.17472 -23.50145 -17.37566 -17.36218
 -15.23975 -15.23974 -13.36409 -12.44223 -12.44223  -8.96681  -8.96681   0.84186
   0.84186   3.18151   3.19021   4.06383   4.06383   5.24521   5.89019   5.89020
   8.46956   9.14849   9.14849  11.76971  11.76971  12.63967


              NET ATOMIC CHARGES AND DIPOLE CONTRIBUTIONS

  ATOM NO.   TYPE          CHARGE      No. of ELECS.   s-Pop       p-Pop       
    1          H           0.021639        0.9784     0.97836
    2          H           0.021639        0.9784     0.97836
    3          H           0.021639        0.9784     0.97836
    4          H           0.021639        0.9784     0.97836
    5          H           0.021639        0.9784     0.97836
    6          H           0.021639        0.9784     0.97836
    7          C          -0.021639        4.0216     1.08010     2.94154
    8          C          -0.021639        4.0216     1.08010     2.94154
    9          C          -0.021639        4.0216     1.08010     2.94154
   10          C          -0.021639        4.0216     1.08010     2.94154
   11          C          -0.021639        4.0216     1.08010     2.94154
   12          C          -0.021639        4.0216     1.08010     2.94154
 DIPOLE           X         Y         Z       TOTAL
 POINT-CHG.    -0.000    -0.000     0.000     0.000
 HYBRID        -0.000     0.000     0.000     0.000
 SUM           -0.000    -0.000     0.000     0.000


          ATOMIC ORBITAL ELECTRON POPULATIONS

     Atom    s        px        py        pz   
    1  H   0.97836
    2  H   0.97836
    3  H   0.97836
    4  H   0.97836
    5  H   0.97836
    6  H   0.97836
    7  C   1.08010   0.99706   0.94448   1.00000
    8  C   1.08010   0.99706   0.94448   1.00000
    9  C   1.08010   0.95762   0.98391   1.00000
   10  C   1.08010   0.95762   0.98391   1.00000
   11  C   1.08010   0.95762   0.98391   1.00000
   12  C   1.08010   0.95762   0.98391   1.00000

 **********************
 *                    *
 * JOB ENDED NORMALLY *
 *                    *
 **********************



 TOTAL JOB TIME:             0.48 SECONDS

 == MOPAC DONE ==
