 *******************************************************************************
 ** Site#:    0         For non-commercial use only    Version 20.173L 64BITS **
 *******************************************************************************
 ** Cite this program as: MOPAC2016, Version: 20.173L, James J. P. Stewart,   **
 ** Stewart Computational Chemistry, web-site: HTTP://OpenMOPAC.net.          **
 *******************************************************************************
 **                                                                           **
 **                                MOPAC2016                                  **
 **                                                                           **
 *******************************************************************************

                              INDO CALCULATION RESULTS

 *******************************************************************************
 *  CALCULATION DONE:                                Wed Oct 11 10:25:11 2023  *
 *  INDO       - The INDO Hamiltonian to be used
 *  CIS        - C.I. USES 1 ELECTRON EXCITATIONS ONLY
 *  T=         - A TIME OF 172800.0 SECONDS REQUESTED
 *  DUMP=N     - RESTART FILE WRITTEN EVERY 7200.0 SECONDS REQUESTED
 *  RELSCF     - DEFAULT SCF CRITERION MULTIPLIED BY 0.0001
 *              (DEFAULT SCF CRITERION = 0.00010)
 *******************************************************************************
INDO CIS RELSCF=0.0001
 carbon dioxide

   ATOM   CHEMICAL          X               Y               Z
  NUMBER   SYMBOL      (ANGSTROMS)     (ANGSTROMS)     (ANGSTROMS)
 
     1       O          0.00000000      0.00000000      0.00000000   
     2       C          0.00000000      0.00000000      1.17965000   
     3       O          0.00000000      0.00000000      2.35929000   
 


          CARTESIAN COORDINATES 

    NO.       ATOM           X           Y           Z

     1         O          0.0000      0.0000      0.0000
     2         C          0.0000      0.0000      1.1797
     3         O          0.0000      0.0000      2.3593

           Empirical Formula: C O2  =     3 atoms



      MOLECULAR POINT GROUP   :   D*h 


      RHF CALCULATION, NO. OF DOUBLY OCCUPIED LEVELS = 8

 WARNING: INDO only performs single-point calculations
  SCF CRITERION =    0.1000E-07

 Summary of symmetry occupancy in each shell:

 SHELL     
    1    8
    v    4
 TOTAL  12




    ROOT NO.    1           2           3           4           5           6

           -43.90990   -42.42681   -19.43724   -17.23938   -17.00919   -17.00919
  
  
  S  O   1   0.53206     0.57045     0.41721    -0.34471    -0.00000    -0.00000
 PX  O   1   0.00000    -0.00000     0.00000    -0.00000     0.57446    -0.00001
 PY  O   1   0.00000     0.00000     0.00000    -0.00000     0.00001     0.57446
 PZ  O   1   0.19392     0.17193    -0.48411     0.55791     0.00000     0.00000
  
  S  C   2   0.59874     0.00005    -0.42795     0.00001     0.00000     0.00000
 PX  C   2   0.00000     0.00000    -0.00000    -0.00000     0.58307    -0.00001
 PY  C   2   0.00000     0.00000     0.00000    -0.00000     0.00001     0.58307
 PZ  C   2   0.00004    -0.53866    -0.00000    -0.37393    -0.00000    -0.00000
  
  S  O   3   0.53216    -0.57037     0.41721     0.34470     0.00000     0.00000
 PX  O   3   0.00000     0.00000     0.00000    -0.00000     0.57448    -0.00001
 PY  O   3   0.00000     0.00000     0.00000    -0.00000     0.00001     0.57448
 PZ  O   3  -0.19395     0.17189     0.48412     0.55791     0.00000     0.00000




    ROOT NO.    7           8           9          10          11          12

           -12.64432   -12.64432    -0.04658    -0.04658     3.46191    14.18595
  
  
  S  O   1   0.00000     0.00000     0.00000    -0.00000    -0.20686     0.23624
 PX  O   1   0.70712    -0.00001    -0.41229    -0.00001    -0.00000    -0.00000
 PY  O   1   0.00001     0.70712     0.00001    -0.41229     0.00000     0.00000
 PZ  O   1  -0.00000    -0.00000     0.00000    -0.00000    -0.47752     0.39898
  
  S  C   2  -0.00000    -0.00000    -0.00000     0.00000     0.67703     0.00000
 PX  C   2   0.00001    -0.00000     0.81242     0.00001     0.00000     0.00000
 PY  C   2   0.00000     0.00001    -0.00001     0.81242    -0.00000     0.00000
 PZ  C   2   0.00000     0.00000    -0.00000     0.00000    -0.00000     0.75499
  
  S  O   3   0.00000     0.00000     0.00000    -0.00000    -0.20686    -0.23625
 PX  O   3  -0.70710     0.00001    -0.41229    -0.00001    -0.00000    -0.00000
 PY  O   3  -0.00001    -0.70710     0.00001    -0.41229     0.00000     0.00000
 PZ  O   3  -0.00000     0.00000    -0.00000     0.00000     0.47752     0.39897


 Reference determinate nber   1 is ALPHA 1 -   8
 SINGLE excitations FROM orbs   1 to   8 INTO orbs   9 to  12
 

 CI excitations=   33:        = 33
 The lowest   33 spin-adapted configurations of multiplicity=  1
     sym   eV   cm**-1 -dets- dipole oscilator X FRAG ....Excitations named from first reference determinate
                       tot  #  Debye  strength
 
   1      0.000      0.  1  1  0.0001 0.000000 0  0 (    )->(       )
   2      5.602  45187.  1  1  0.0001 0.000000 1  1 (   8)->(   9   )
   3      5.602  45187.  1  1  0.0001 0.000000 1  1 (   7)->(  10   )
   4      8.242  66473.  1  1  0.0001 0.682244 1  1 (   7)->(   9   )
   5      8.242  66473.  1  1  0.0001 0.682244 1  1 (   8)->(  10   )
   6      9.127  73611.  1  1  0.0001 0.000000 1  1 (   8)->(  11   )
   7      9.127  73611.  1  1  0.0001 0.000000 1  1 (   7)->(  11   )
   8      9.412  75913.  1  1  0.0002 0.000000 1  1 (   6)->(   9   )
   9      9.412  75913.  1  1  0.0002 0.000000 1  1 (   5)->(  10   )
  10     10.198  82253.  1  1  0.0000 0.000000 1  1 (   4)->(   9   )
  11     10.198  82253.  1  1  0.0000 0.000000 1  1 (   4)->(  10   )
  12     12.145  97956.  1  1  0.0002 0.000000 1  1 (   6)->(  10   )
  13     12.145  97956.  1  1  0.0002 0.000000 1  1 (   5)->(   9   )
  14     12.813 103345.  1  1  0.0001 0.174421 1  1 (   3)->(   9   )
  15     12.813 103345.  1  1  0.0001 0.174421 1  1 (   3)->(  10   )
  16     13.632 109949.  1  1  0.0002 0.026676 1  1 (   6)->(  11   )
  17     13.632 109949.  1  1  0.0002 0.026676 1  1 (   5)->(  11   )
  18     15.116 121918.  1  1  0.0000 0.370655 1  1 (   4)->(  11   )
  19     16.953 136736.  1  1  0.0002 0.000000 1  1 (   3)->(  11   )
  20     20.050 161715.  1  1  0.0001 0.044142 1  1 (   8)->(  12   )
  21     20.050 161715.  1  1  0.0001 0.044142 1  1 (   7)->(  12   )
  22     23.880 192605.  1  1  0.0002 0.000000 1  1 (   6)->(  12   )
  23     23.880 192605.  1  1  0.0002 0.000000 1  1 (   5)->(  12   )
  24     25.440 205191.  1  1  0.0000 0.000000 1  1 (   4)->(  12   )
  25     27.260 219870.  1  1  0.0002 0.053862 1  1 (   3)->(  12   )
  26     35.538 286634.  1  1  0.0006 0.000000 1  1 (   2)->(   9   )
  27     35.538 286634.  1  1  0.0006 0.000000 1  1 (   2)->(  10   )
  28     37.575 303061.  1  1  0.0007 0.043487 1  1 (   1)->(   9   )
  29     37.575 303061.  1  1  0.0007 0.043487 1  1 (   1)->(  10   )
  30     40.967 330425.  1  1  0.0005 0.063167 1  1 (   2)->(  11   )
  31     42.517 342927.  1  1  0.0007 0.000000 1  1 (   1)->(  11   )
  32     51.772 417574.  1  1  0.0006 0.000000 1  1 (   2)->(  12   )
  33     53.017 427611.  1  1  0.0007 0.080824 1  1 (   1)->(  12   )

 Depression of ground-state after CI=          0. cm**-1 Energy= -1282.4218198 eV
 Dipole moment=  0.000000  0.000000  0.000082 tot=  0.000082 Debyes


  CI trans.  energy frequency wavelength oscillator ---------polarization---------    dipole   ------components----- 
 st.  symm.    eV      cm-1       nm      strength       x          y         z       moment     x       y       z 

   2      5.4616122    44051.    227.01  0.000000                                   0.000091   0.000   0.000  -0.000
   3      5.7432208    46322.    215.88  0.000000                                   0.000094   0.000   0.000  -0.000
   4      5.7432208    46322.    215.88  0.000000                                   0.000094   0.000   0.000  -0.000
   5      9.0592083    73068.    136.86  0.000000                                   0.000056   0.000   0.000  -0.000
   6      9.0592083    73068.    136.86  0.000000                                   0.000056   0.000   0.000  -0.000
   7      9.1976677    74184.    134.80  0.000000                                   0.000166   0.000  -0.000   0.000
   8      9.4067490    75871.    131.80  0.890115   0.000000   0.000000   1.000000  0.000144   0.000  -0.000  -0.000
   9      9.6264038    77642.    128.80  0.000000                                   0.000169   0.000  -0.000   0.000
  10      9.6264226    77643.    128.80  0.000000                                   0.000169   0.000  -0.000   0.000
  11     10.1788449    82098.    121.81  0.000000                                   0.000041   0.000  -0.000   0.000
  12     10.1788449    82098.    121.81  0.000000                                   0.000041   0.000  -0.000   0.000
  13     12.7323107   102693.     97.38  0.126651   1.000000   0.000043   0.000000  0.000091   0.000   0.000   0.000
  14     12.7323107   102693.     97.38  0.126651   0.000043  -1.000000  -0.000000  0.000091   0.000  -0.000   0.000
  15     12.9303841   104291.     95.89  0.000000                                   0.000248   0.000   0.000   0.000
  16     13.5422830   109226.     91.55  0.064526   0.000051  -1.000000   0.000000  0.000214  -0.000   0.000   0.000
  17     13.5422830   109226.     91.55  0.064526  -1.000000  -0.000051   0.000000  0.000214  -0.000   0.000   0.000
  18     15.9871122   128945.     77.55  1.362966   0.000000   0.000000  -1.000000  0.000026   0.000  -0.000  -0.000
  19     17.7961320   143536.     69.67  0.000000                                   0.000194   0.000   0.000   0.000
  20     20.1920263   162860.     61.40  0.063192  -0.000012   1.000000   0.000000  0.000130   0.000   0.000  -0.000
  21     20.1920263   162860.     61.40  0.063192  -1.000000  -0.000012  -0.000000  0.000130   0.000   0.000  -0.000
  22     23.9313246   193020.     51.81  0.000000                                   0.000226   0.000  -0.000   0.000
  23     23.9313246   193020.     51.81  0.000000                                   0.000226   0.000   0.000   0.000
  24     25.6567357   206936.     48.32  0.000000                                   0.000016   0.000  -0.000   0.000
  25     27.2583080   219854.     45.48  0.120963   0.000000   0.000000   1.000000  0.000130   0.000   0.000   0.000
  26     35.5732105   286918.     34.85  0.000000                                   0.000400   0.000   0.000  -0.000
  27     35.5732105   286918.     34.85  0.000000                                   0.000400   0.000  -0.000  -0.000
  28     37.6031106   303290.     32.97  0.040874   1.000000   0.000235   0.000000  0.000501   0.000   0.000   0.001
  29     37.6031106   303290.     32.97  0.040874  -0.000235   1.000000  -0.000000  0.000501   0.000   0.000   0.001
  30     41.0520279   331108.     30.20  0.203792  -0.000000   0.000000  -1.000000  0.000622   0.000  -0.000  -0.001
  31     42.5590859   343263.     29.13  0.000000                                   0.000818  -0.000  -0.000   0.001
  32     52.4045082   422672.     23.66  0.000000                                   0.000645   0.000  -0.000  -0.001
  33     53.3962678   430671.     23.22  0.311998   0.000000   0.000000  -1.000000  0.000779   0.000   0.000   0.001
 
 Polarizability (au  ) xx=    2.93 xy=    0.00 yy=    2.93 xz=    0.00 yz=    0.00 zz=   35.06
 Polarizability (A**3) xx=    0.43 xy=    0.00 yy=    0.43 xz=    0.00 yz=    0.00 zz=    5.20
 
 
 Major CI contributions to CI states
 
State    1  0.0000     CI coeff  CI percent
    Config       1   1.00000000  1.00000000
 Total coeff printed             1.00000000
  
State    2  5.4616     CI coeff  CI percent
    Config       2   0.70710678  0.50000000
    Config       3  -0.70710678  0.50000000
 Total coeff printed             1.00000000
  
State    3  5.7432     CI coeff  CI percent
    Config       2  -0.65387433  0.42755164
    Config       3  -0.65387433  0.42755165
    Config       4   0.26916232  0.07244835
    Config       5  -0.26916232  0.07244835
 Total coeff printed             1.00000000
  
State    4  5.7432     CI coeff  CI percent
    Config       2   0.26916232  0.07244835
    Config       3   0.26916232  0.07244836
    Config       4   0.65387433  0.42755165
    Config       5  -0.65387433  0.42755165
 Total coeff printed             1.00000000
  
State    5  9.0592     CI coeff  CI percent
    Config       6   0.99754660  0.99509922
    Config      22  -0.06508566  0.00423614
 Total coeff printed             0.99933537
  
State    6  9.0592     CI coeff  CI percent
    Config       7   0.99754660  0.99509922
    Config      23  -0.06508566  0.00423614
 Total coeff printed             0.99933537
  
State    7  9.1977     CI coeff  CI percent
    Config       8  -0.70710678  0.50000000
    Config       9   0.70710678  0.50000000
 Total coeff printed             1.00000000
  
State    8  9.4067     CI coeff  CI percent
    Config       4   0.64982608  0.42227394
    Config       5   0.64982608  0.42227394
    Config      18  -0.38416873  0.14758561
    Config      25  -0.06545484  0.00428434
    Config      30  -0.04981582  0.00248162
 Total coeff printed             0.99889944
  
State    9  9.6264     CI coeff  CI percent
    Config       8   0.50000741  0.25000741
    Config       9   0.50000741  0.25000741
    Config      12  -0.49999259  0.24999259
    Config      13   0.49999259  0.24999259
 Total coeff printed             1.00000000
  
State   10  9.6264     CI coeff  CI percent
    Config       8  -0.49999259  0.24999259
    Config       9  -0.49999259  0.24999259
    Config      12  -0.50000741  0.25000741
    Config      13   0.50000741  0.25000741
 Total coeff printed             1.00000000
  
State   11 10.1788     CI coeff  CI percent
    Config      10   0.99934867  0.99869776
 Total coeff printed             0.99869776
  
State   12 10.1788     CI coeff  CI percent
    Config      11   0.99934867  0.99869776
 Total coeff printed             0.99869776
  
State   13 12.7323     CI coeff  CI percent
    Config      14  -0.95337503  0.90892394
    Config      17  -0.30020209  0.09012130
 Total coeff printed             0.99904523
  
State   14 12.7323     CI coeff  CI percent
    Config      15   0.95337503  0.90892394
    Config      16   0.30020209  0.09012130
 Total coeff printed             0.99904523
  
State   15 12.9304     CI coeff  CI percent
    Config      12  -0.62535850  0.39107326
    Config      13  -0.62535850  0.39107326
    Config      19  -0.43605484  0.19014382
    Config      24  -0.14838685  0.02201866
    Config      31   0.05987208  0.00358467
    Config      32  -0.04589484  0.00210634
 Total coeff printed             1.00000000
  
State   16 13.5423     CI coeff  CI percent
    Config      15   0.30071645  0.09043038
    Config      16  -0.94203086  0.88742213
    Config      20   0.14672934  0.02152950
 Total coeff printed             0.99938202
  
State   17 13.5423     CI coeff  CI percent
    Config      14   0.30071645  0.09043038
    Config      17  -0.94203086  0.88742213
    Config      21   0.14672934  0.02152950
 Total coeff printed             0.99938202
  
State   18 15.9871     CI coeff  CI percent
    Config       4  -0.26704137  0.07131109
    Config       5  -0.26704137  0.07131109
    Config      18  -0.92158505  0.84931900
    Config      30   0.06494393  0.00421771
    Config      33  -0.05440348  0.00295974
 Total coeff printed             0.99911864
  
State   19 17.7961     CI coeff  CI percent
    Config      12   0.29554281  0.08734555
    Config      13   0.29554281  0.08734555
    Config      19  -0.89821694  0.80679367
    Config      24   0.10497542  0.01101984
    Config      31  -0.05985408  0.00358251
    Config      32   0.06255302  0.00391288
 Total coeff printed             1.00000000
  
State   20 20.1920     CI coeff  CI percent
    Config      16   0.14727871  0.02169102
    Config      20   0.98875909  0.97764453
 Total coeff printed             0.99933555
  
State   21 20.1920     CI coeff  CI percent
    Config      17  -0.14727871  0.02169102
    Config      21  -0.98875909  0.97764453
 Total coeff printed             0.99933555
  
State   22 23.9313     CI coeff  CI percent
    Config       6  -0.06550101  0.00429038
    Config      22  -0.99736875  0.99474442
 Total coeff printed             0.99903480
  
State   23 23.9313     CI coeff  CI percent
    Config       7  -0.06550101  0.00429038
    Config      23  -0.99736875  0.99474442
 Total coeff printed             0.99903480
  
State   24 25.6567     CI coeff  CI percent
    Config      12  -0.11904243  0.01417110
    Config      13  -0.11904243  0.01417110
    Config      24   0.97953306  0.95948501
    Config      31   0.09507109  0.00903851
    Config      32  -0.04938702  0.00243908
 Total coeff printed             0.99930480
  
State   25 27.2583     CI coeff  CI percent
    Config       4   0.04610043  0.00212525
    Config       5   0.04610043  0.00212525
    Config      25   0.99447308  0.98897671
    Config      30  -0.08002770  0.00640443
 Total coeff printed             0.99963164
  
State   26 35.5732     CI coeff  CI percent
    Config      26  -0.99904929  0.99809949
 Total coeff printed             0.99809949
  
State   27 35.5732     CI coeff  CI percent
    Config      27   0.99904929  0.99809949
 Total coeff printed             0.99809949
  
State   28 37.6031     CI coeff  CI percent
    Config      28   0.99939296  0.99878628
 Total coeff printed             0.99878628
  
State   29 37.6031     CI coeff  CI percent
    Config      29   0.99939296  0.99878628
 Total coeff printed             0.99878628
  
State   30 41.0520     CI coeff  CI percent
    Config       4  -0.04869338  0.00237104
    Config       5  -0.04869338  0.00237104
    Config      25  -0.07234808  0.00523425
    Config      30  -0.98573338  0.97167029
    Config      33  -0.13064132  0.01706715
 Total coeff printed             0.99871378
  
State   31 42.5591     CI coeff  CI percent
    Config      12  -0.05631810  0.00317173
    Config      13  -0.05631810  0.00317173
    Config      24   0.07093919  0.00503237
    Config      31  -0.97606854  0.95270980
    Config      32  -0.18808879  0.03537739
 Total coeff printed             0.99946302
  
State   32 52.4045     CI coeff  CI percent
    Config      12  -0.06510268  0.00423836
    Config      13  -0.06510268  0.00423836
    Config      19   0.04278243  0.00183034
    Config      24   0.04943808  0.00244412
    Config      31  -0.17630800  0.03108451
    Config      32   0.97783655  0.95616431
 Total coeff printed             1.00000000
  
State   33 53.3963     CI coeff  CI percent
    Config       4  -0.04380265  0.00191867
    Config       5  -0.04380265  0.00191867
    Config      18  -0.04250966  0.00180707
    Config      30  -0.12339345  0.01522594
    Config      33   0.98919477  0.97850630
 Total coeff printed             0.99937665
  

 -------------------------------------------------------------------------------
 INDO CIS RELSCF=0.0001
 carbon dioxide



     NO PARAMETERS MARKED FOR OPTIMIZATION, SO 1SCF WAS USED  
     SCF FIELD WAS ACHIEVED                                   


                              INDO CALCULATION
                                                       MOPAC2016 (Version: 20.173L)
                                                       Wed Oct 11 10:25:11 2023




          FINAL HEAT OF FORMATION =     -18074.37997 KCAL/MOL =  -75623.20579 KJ/MOL


          TOTAL ENERGY            =       -796.35589 EV
          ELECTRONIC ENERGY       =      -1282.42182 EV  POINT GROUP:     D*h 
          CORE-CORE REPULSION     =        486.06593 EV
          COSMO AREA              =         65.72 SQUARE ANGSTROMS
          COSMO VOLUME            =         47.39 CUBIC ANGSTROMS

          IONIZATION POTENTIAL    =         12.644316 EV
          HOMO LUMO ENERGIES (EV) =        -12.644 -0.047
          NO. OF FILLED LEVELS    =          8
          MOLECULAR WEIGHT        =         44.0098

          MOLECULAR DIMENSIONS (Angstroms)

            Atom       Atom       Distance
            O     3    O     1     2.35929
            O     3    O     1     0.00000
            O     1    C     2     0.00000


          SCF CALCULATIONS        =          1
 
          WALL-CLOCK TIME         =          0.031 SECONDS
          COMPUTATION TIME        =          0.024 SECONDS




   ATOM   CHEMICAL          X               Y               Z
  NUMBER   SYMBOL      (ANGSTROMS)     (ANGSTROMS)     (ANGSTROMS)
 
     1       O          0.00000000      0.00000000      0.00000000   
     2       C          0.00000000      0.00000000      1.17965000   
     3       O          0.00000000      0.00000000      2.35929000   

                             CARTESIAN COORDINATES

   1    O        0.000000000     0.000000000     0.000000000
   2    C        0.000000000     0.000000000     1.179650000
   3    O        0.000000000     0.000000000     2.359290000


           Empirical Formula: C O2  =     3 atoms



      MOLECULAR POINT GROUP   :   D*h 


                  EIGENVALUES  
 -43.90990 -42.42681 -19.43724 -17.23938 -17.00919 -17.00919 -12.64432 -12.64432
  -0.04658  -0.04658   3.46191  14.18595


              NET ATOMIC CHARGES AND DIPOLE CONTRIBUTIONS

  ATOM NO.   TYPE          CHARGE      No. of ELECS.   s-Pop       p-Pop       
    1          O          -0.348450        6.3485     1.80280     4.54566
    2          C           0.696889        3.3031     1.08327     2.21985
    3          O          -0.348439        6.3484     1.80279     4.54565
 DIPOLE           X         Y         Z       TOTAL
 POINT-CHG.     0.000     0.000     0.000     0.000
 HYBRID        -0.000    -0.000     0.000     0.000
 SUM           -0.000    -0.000     0.000     0.000


          ATOMIC ORBITAL ELECTRON POPULATIONS

     Atom    s        px        py        pz   
    1  O   1.80280   1.66004   1.66004   1.22558
    2  C   1.08327   0.67994   0.67994   0.85997
    3  O   1.80279   1.66003   1.66003   1.22559

 **********************
 *                    *
 * JOB ENDED NORMALLY *
 *                    *
 **********************



 TOTAL JOB TIME:             0.05 SECONDS

 == MOPAC DONE ==
