 *******************************************************************************
 ** Site#:    0         For non-commercial use only    Version 20.173L 64BITS **
 *******************************************************************************
 ** Cite this program as: MOPAC2016, Version: 20.173L, James J. P. Stewart,   **
 ** Stewart Computational Chemistry, web-site: HTTP://OpenMOPAC.net.          **
 *******************************************************************************
 **                                                                           **
 **                                MOPAC2016                                  **
 **                                                                           **
 *******************************************************************************

                              INDO CALCULATION RESULTS

 *******************************************************************************
 *  CALCULATION DONE:                                Wed Oct 11 10:33:17 2023  *
 *  INDO       - The INDO Hamiltonian to be used
 *  CIS        - C.I. USES 1 ELECTRON EXCITATIONS ONLY
 *  T=         - A TIME OF 172800.0 SECONDS REQUESTED
 *  DUMP=N     - RESTART FILE WRITTEN EVERY 7200.0 SECONDS REQUESTED
 *  RELSCF     - DEFAULT SCF CRITERION MULTIPLIED BY 0.0001
 *              (DEFAULT SCF CRITERION = 0.00010)
 *******************************************************************************
INDO CIS RELSCF=0.0001
 carbon dioxide

   ATOM   CHEMICAL          X               Y               Z
  NUMBER   SYMBOL      (ANGSTROMS)     (ANGSTROMS)     (ANGSTROMS)
 
     1       O          0.00000000      0.00000000     -0.00330000   
     2       C          0.00000000      0.00000000      1.18845000   
     3       O          0.00000000      0.00000000      2.35599000   
 


          CARTESIAN COORDINATES 

    NO.       ATOM           X           Y           Z

     1         O          0.0000      0.0000     -0.0033
     2         C          0.0000      0.0000      1.1885
     3         O          0.0000      0.0000      2.3560

           Empirical Formula: C O2  =     3 atoms



      MOLECULAR POINT GROUP   :   D*h 


      RHF CALCULATION, NO. OF DOUBLY OCCUPIED LEVELS = 8

 WARNING: INDO only performs single-point calculations
  SCF CRITERION =    0.1000E-07

 Summary of symmetry occupancy in each shell:

 SHELL     
    1    8
    v    4
 TOTAL  12




    ROOT NO.    1           2           3           4           5           6

           -43.96639   -42.36977   -19.43849   -17.23665   -17.01616   -17.01616
  
  
  S  O   1   0.41688     0.66011     0.41376    -0.35124    -0.00000     0.00000
 PX  O   1   0.00000    -0.00000     0.00000    -0.00000     0.54893     0.00003
 PY  O   1  -0.00000     0.00000    -0.00000     0.00000    -0.00003     0.54893
 PZ  O   1   0.15727     0.20582    -0.47261     0.56272     0.00000    -0.00000
  
  S  C   2   0.58854     0.11006    -0.42782     0.01129    -0.00000    -0.00000
 PX  C   2  -0.00000    -0.00000     0.00000    -0.00000     0.58289     0.00004
 PY  C   2   0.00000     0.00000    -0.00000     0.00000    -0.00004     0.58289
 PZ  C   2   0.10055    -0.52915     0.00007    -0.37402    -0.00000     0.00000
  
  S  O   3   0.62856    -0.46099     0.42053     0.33795     0.00000    -0.00000
 PX  O   3  -0.00000    -0.00000    -0.00000    -0.00000     0.59909     0.00004
 PY  O   3   0.00000     0.00000    -0.00000     0.00000    -0.00004     0.59909
 PZ  O   3  -0.22340     0.13142     0.49555     0.55295     0.00000    -0.00000




    ROOT NO.    7           8           9          10          11          12

           -12.63949   -12.63949    -0.04525    -0.04525     3.46146    14.18268
  
  
  S  O   1   0.00000     0.00000    -0.00000     0.00000    -0.20509     0.23205
 PX  O   1   0.73041    -0.00001    -0.40642     0.00000     0.00000     0.00000
 PY  O   1   0.00001     0.73041    -0.00000    -0.40642     0.00000     0.00000
 PZ  O   1  -0.00000     0.00000    -0.00000     0.00000    -0.48286     0.39968
  
  S  C   2   0.00000     0.00000     0.00000     0.00000     0.67697     0.00783
 PX  C   2   0.01399    -0.00000     0.81243    -0.00000    -0.00000     0.00000
 PY  C   2   0.00000     0.01399     0.00000     0.81243     0.00000    -0.00000
 PZ  C   2  -0.00000    -0.00000    -0.00000     0.00000    -0.00384     0.75497
  
  S  O   3  -0.00000    -0.00000    -0.00000    -0.00000    -0.20860    -0.24050
 PX  O   3  -0.68287     0.00001    -0.41807     0.00000     0.00000    -0.00000
 PY  O   3  -0.00001    -0.68287    -0.00000    -0.41807    -0.00000    -0.00000
 PZ  O   3  -0.00000    -0.00000     0.00000     0.00000     0.47219     0.39816


 Reference determinate nber   1 is ALPHA 1 -   8
 SINGLE excitations FROM orbs   1 to   8 INTO orbs   9 to  12
 

 CI excitations=   33:        = 33
 The lowest   33 spin-adapted configurations of multiplicity=  1
     sym   eV   cm**-1 -dets- dipole oscilator X FRAG ....Excitations named from first reference determinate
                       tot  #  Debye  strength
 
   1      0.000      0.  1  1  0.2047 0.000000 0  0 (    )->(       )
   2      5.602  45182.  1  1  0.2688 0.000000 1  1 (   8)->(   9   )
   3      5.602  45182.  1  1  0.2688 0.000000 1  1 (   7)->(  10   )
   4      8.237  66435.  1  1  0.2688 0.680417 1  1 (   7)->(   9   )
   5      8.237  66435.  1  1  0.2688 0.680417 1  1 (   8)->(  10   )
   6      9.120  73559.  1  1  0.1430 0.000006 1  1 (   8)->(  11   )
   7      9.120  73559.  1  1  0.1430 0.000006 1  1 (   7)->(  11   )
   8      9.418  75959.  1  1  0.4579 0.000000 1  1 (   6)->(   9   )
   9      9.418  75959.  1  1  0.4579 0.000000 1  1 (   5)->(  10   )
  10     10.197  82246.  1  1  0.0474 0.000041 1  1 (   4)->(   9   )
  11     10.197  82246.  1  1  0.0474 0.000041 1  1 (   4)->(  10   )
  12     12.153  98022.  1  1  0.4579 0.001499 1  1 (   6)->(  10   )
  13     12.153  98022.  1  1  0.4579 0.001499 1  1 (   5)->(   9   )
  14     12.814 103353.  1  1  0.3217 0.174352 1  1 (   3)->(   9   )
  15     12.814 103353.  1  1  0.3217 0.174352 1  1 (   3)->(  10   )
  16     13.639 110009.  1  1  0.5836 0.026675 1  1 (   6)->(  11   )
  17     13.639 110009.  1  1  0.5836 0.026675 1  1 (   5)->(  11   )
  18     15.114 121905.  1  1  0.0783 0.370942 1  1 (   4)->(  11   )
  19     16.953 136739.  1  1  0.4474 0.000010 1  1 (   3)->(  11   )
  20     20.043 161656.  1  1  0.2418 0.044065 1  1 (   8)->(  12   )
  21     20.043 161656.  1  1  0.2418 0.044065 1  1 (   7)->(  12   )
  22     23.883 192632.  1  1  0.4848 0.000050 1  1 (   6)->(  12   )
  23     23.883 192632.  1  1  0.4848 0.000050 1  1 (   5)->(  12   )
  24     25.435 205146.  1  1  0.0205 0.000351 1  1 (   4)->(  12   )
  25     27.257 219846.  1  1  0.3486 0.053656 1  1 (   3)->(  12   )
  26     35.508 286392.  1  1  1.2982 0.001725 1  1 (   2)->(   9   )
  27     35.508 286392.  1  1  1.2982 0.001725 1  1 (   2)->(  10   )
  28     37.607 303319.  1  1  1.5549 0.041731 1  1 (   1)->(   9   )
  29     37.607 303319.  1  1  1.5549 0.041731 1  1 (   1)->(  10   )
  30     40.921 330053.  1  1  1.1725 0.061212 1  1 (   2)->(  11   )
  31     42.562 343284.  1  1  1.6806 0.001916 1  1 (   1)->(  11   )
  32     51.701 416997.  1  1  1.2713 0.003824 1  1 (   2)->(  12   )
  33     53.080 428123.  1  1  1.5818 0.077023 1  1 (   1)->(  12   )

 Depression of ground-state after CI=          0. cm**-1 Energy= -1282.4290403 eV
 Dipole moment= -0.000000 -0.000000  0.204731 tot=  0.204731 Debyes


  CI trans.  energy frequency wavelength oscillator ---------polarization---------    dipole   ------components----- 
 st.  symm.    eV      cm-1       nm      strength       x          y         z       moment     x       y       z 

   2      5.4610518    44046.    227.03  0.000000                                   0.199336  -0.000  -0.000  -0.199
   3      5.7422518    46315.    215.92  0.000000                                   0.208875  -0.000  -0.000  -0.209
   4      5.7422518    46315.    215.92  0.000000                                   0.208875  -0.000  -0.000  -0.209
   5      9.0523753    73013.    136.96  0.000001  -0.000031   1.000000  -0.000000  0.118530   0.000   0.000  -0.119
   6      9.0523753    73013.    136.96  0.000001   1.000000   0.000031  -0.000000  0.118530   0.000  -0.000  -0.119
   7      9.2032937    74230.    134.72  0.000000                                   0.388454  -0.000  -0.000   0.388
   8      9.3988924    75807.    131.91  0.886622  -0.000000   0.000000  -1.000000  0.330083  -0.000  -0.000  -0.330
   9      9.6323596    77690.    128.72  0.000000                                   0.397993   0.000  -0.000   0.398
  10      9.6323596    77690.    128.72  0.000000                                   0.397993  -0.000   0.000   0.398
  11     10.1773527    82086.    121.82  0.000001   1.000000   0.000080  -0.000000  0.134089  -0.000  -0.000   0.134
  12     10.1773527    82086.    121.82  0.000001  -0.000080   1.000000   0.000000  0.134089  -0.000  -0.000   0.134
  13     12.7345906   102712.     97.36  0.127055  -1.000000  -0.000000  -0.000000  0.195025  -0.000  -0.000   0.195
  14     12.7345906   102712.     97.36  0.127055  -0.000000   1.000000  -0.000000  0.195025  -0.000   0.000   0.195
  15     12.9388865   104359.     95.82  0.001879  -0.000000   0.000000   1.000000  0.590126  -0.000  -0.000   0.590
  16     13.5492505   109282.     91.51  0.064111  -0.000087  -1.000000  -0.000000  0.513784  -0.000  -0.000   0.514
  17     13.5492505   109282.     91.51  0.064111   1.000000  -0.000087  -0.000000  0.513784  -0.000  -0.000   0.514
  18     15.9855410   128932.     77.56  1.363576  -0.000000   0.000000   1.000000  0.015546  -0.000  -0.000  -0.016
  19     17.7975388   143547.     69.66  0.000605  -0.000000   0.000000  -1.000000  0.436036  -0.000  -0.000   0.436
  20     20.1848753   162802.     61.42  0.063090   0.000011   1.000000  -0.000000  0.292623  -0.000  -0.000  -0.293
  21     20.1848753   162802.     61.42  0.063090  -1.000000   0.000011  -0.000000  0.292623  -0.000  -0.000  -0.293
  22     23.9345232   193045.     51.80  0.000075   0.000088   1.000000   0.000000  0.529581  -0.000  -0.000   0.530
  23     23.9345232   193045.     51.80  0.000075   1.000000  -0.000088  -0.000000  0.529581  -0.000  -0.000   0.530
  24     25.6511366   206891.     48.33  0.000193  -0.000000   0.000000  -1.000000  0.089163  -0.000  -0.000   0.089
  25     27.2554794   219831.     45.49  0.120737   0.000000  -0.000000  -1.000000  0.271628  -0.000  -0.000   0.272
  26     35.5363719   286621.     34.89  0.000862  -1.000000  -0.000105  -0.000000  0.906207  -0.000  -0.000  -0.906
  27     35.5363719   286621.     34.89  0.000862  -0.000105   1.000000  -0.000000  0.906207  -0.000  -0.000  -0.906
  28     37.6419083   303603.     32.94  0.040032   1.000000  -0.000106   0.000000  1.159355  -0.000   0.000   1.159
  29     37.6419083   303603.     32.94  0.040032   0.000106   1.000000   0.000000  1.159355  -0.000  -0.000   1.159
  30     41.0045511   330725.     30.24  0.198257   0.000000  -0.000000  -1.000000  1.361153   0.000  -0.000  -1.361
  31     42.6046196   343630.     29.10  0.005402  -0.000000   0.000000  -1.000000  1.849356   0.000   0.000   1.849
  32     52.3160135   421958.     23.70  0.024884   0.000000  -0.000000  -1.000000  1.289804  -0.000  -0.000  -1.290
  33     53.4765707   431319.     23.18  0.286868  -0.000000  -0.000000  -1.000000  1.621866  -0.000   0.000   1.622
 
 Polarizability (au  ) xx=    2.92 xy=    0.00 yy=    2.92 xz=    0.00 yz=    0.00 zz=   35.05
 Polarizability (A**3) xx=    0.43 xy=    0.00 yy=    0.43 xz=    0.00 yz=    0.00 zz=    5.19
 
 
 Major CI contributions to CI states
 
State    1  0.0000     CI coeff  CI percent
    Config       1   1.00000000  1.00000000
 Total coeff printed             1.00000000
  
State    2  5.4611     CI coeff  CI percent
    Config       2   0.70708657  0.49997142
    Config       3  -0.70708657  0.49997142
 Total coeff printed             0.99994284
  
State    3  5.7423     CI coeff  CI percent
    Config       2   0.70709167  0.49997864
    Config       3   0.70709167  0.49997864
 Total coeff printed             0.99995727
  
State    4  5.7423     CI coeff  CI percent
    Config       4  -0.70709167  0.49997864
    Config       5   0.70709167  0.49997864
 Total coeff printed             0.99995727
  
State    5  9.0524     CI coeff  CI percent
    Config       6   0.99752838  0.99506288
    Config      22  -0.06482670  0.00420250
 Total coeff printed             0.99926538
  
State    6  9.0524     CI coeff  CI percent
    Config       7   0.99752838  0.99506288
    Config      23  -0.06482670  0.00420250
 Total coeff printed             0.99926538
  
State    7  9.2033     CI coeff  CI percent
    Config       8   0.70708657  0.49997142
    Config       9  -0.70708657  0.49997142
 Total coeff printed             0.99994283
  
State    8  9.3989     CI coeff  CI percent
    Config       4  -0.64991787  0.42239324
    Config       5  -0.64991787  0.42239324
    Config      18   0.38359733  0.14714691
    Config      25   0.06523333  0.00425539
    Config      30   0.04941734  0.00244207
 Total coeff printed             0.99863085
  
State    9  9.6324     CI coeff  CI percent
    Config      12   0.70614381  0.49863908
    Config      13  -0.70614381  0.49863908
 Total coeff printed             0.99727817
  
State   10  9.6324     CI coeff  CI percent
    Config       8  -0.70614381  0.49863908
    Config       9  -0.70614381  0.49863908
 Total coeff printed             0.99727817
  
State   11 10.1774     CI coeff  CI percent
    Config      10   0.99925196  0.99850449
 Total coeff printed             0.99850449
  
State   12 10.1774     CI coeff  CI percent
    Config      11   0.99925196  0.99850449
 Total coeff printed             0.99850449
  
State   13 12.7346     CI coeff  CI percent
    Config      14   0.95396414  0.91004758
    Config      17   0.29805685  0.08883789
 Total coeff printed             0.99888547
  
State   14 12.7346     CI coeff  CI percent
    Config      15  -0.95396414  0.91004758
    Config      16  -0.29805685  0.08883789
 Total coeff printed             0.99888547
  
State   15 12.9389     CI coeff  CI percent
    Config      12  -0.62491010  0.39051263
    Config      13  -0.62491010  0.39051263
    Config      19  -0.43649263  0.19052581
    Config      24  -0.14830653  0.02199483
    Config      31   0.05893961  0.00347388
    Config      32  -0.04477269  0.00200459
 Total coeff printed             0.99902437
  
State   16 13.5493     CI coeff  CI percent
    Config      15   0.29848967  0.08909608
    Config      16  -0.94270551  0.88869368
    Config      20   0.14662011  0.02149746
 Total coeff printed             0.99928722
  
State   17 13.5493     CI coeff  CI percent
    Config      14  -0.29848967  0.08909608
    Config      17   0.94270551  0.88869368
    Config      21  -0.14662011  0.02149746
 Total coeff printed             0.99928722
  
State   18 15.9855     CI coeff  CI percent
    Config       4   0.26679743  0.07118087
    Config       5   0.26679743  0.07118087
    Config      18   0.92142343  0.84902114
    Config      30  -0.06395055  0.00408967
    Config      33   0.05336209  0.00284751
 Total coeff printed             0.99832006
  
State   19 17.7975     CI coeff  CI percent
    Config      12   0.29594614  0.08758412
    Config      13   0.29594614  0.08758412
    Config      19  -0.89793231  0.80628243
    Config      24   0.10511768  0.01104973
    Config      31  -0.05896516  0.00347689
    Config      32   0.06127238  0.00375431
 Total coeff printed             0.99973159
  
State   20 20.1849     CI coeff  CI percent
    Config      16   0.14712885  0.02164690
    Config      20   0.98874904  0.97762466
 Total coeff printed             0.99927156
  
State   21 20.1849     CI coeff  CI percent
    Config      17  -0.14712885  0.02164690
    Config      21  -0.98874904  0.97762466
 Total coeff printed             0.99927156
  
State   22 23.9345     CI coeff  CI percent
    Config       6  -0.06525789  0.00425859
    Config      22  -0.99736373  0.99473441
 Total coeff printed             0.99899300
  
State   23 23.9345     CI coeff  CI percent
    Config       7  -0.06525789  0.00425859
    Config      23  -0.99736373  0.99473441
 Total coeff printed             0.99899300
  
State   24 25.6511     CI coeff  CI percent
    Config      12  -0.11907609  0.01417912
    Config      13  -0.11907609  0.01417912
    Config      24   0.97947852  0.95937817
    Config      31   0.09289691  0.00862984
    Config      32  -0.04847685  0.00235000
 Total coeff printed             0.99871624
  
State   25 27.2555     CI coeff  CI percent
    Config       4  -0.04601552  0.00211743
    Config       5  -0.04601552  0.00211743
    Config      25  -0.99444297  0.98891681
    Config      30   0.07884201  0.00621606
 Total coeff printed             0.99936773
  
State   26 35.5364     CI coeff  CI percent
    Config      26  -0.99753989  0.99508584
    Config      28   0.05504159  0.00302958
 Total coeff printed             0.99811541
  
State   27 35.5364     CI coeff  CI percent
    Config      27   0.99753989  0.99508584
    Config      29  -0.05504159  0.00302958
 Total coeff printed             0.99811541
  
State   28 37.6419     CI coeff  CI percent
    Config      26   0.05516565  0.00304325
    Config      28   0.99786086  0.99572630
 Total coeff printed             0.99876955
  
State   29 37.6419     CI coeff  CI percent
    Config      27   0.05516565  0.00304325
    Config      29   0.99786086  0.99572630
 Total coeff printed             0.99876955
  
State   30 41.0046     CI coeff  CI percent
    Config       4  -0.04828773  0.00233170
    Config       5  -0.04828773  0.00233170
    Config      25  -0.07144995  0.00510510
    Config      30  -0.98514623  0.97051310
    Config      32  -0.05537488  0.00306638
    Config      33  -0.12084273  0.01460296
 Total coeff printed             0.99795094
  
State   31 42.6046     CI coeff  CI percent
    Config      12   0.05567383  0.00309958
    Config      13   0.05567383  0.00309958
    Config      24  -0.06939921  0.00481625
    Config      31   0.97631348  0.95318802
    Config      32   0.17850720  0.03186482
    Config      33  -0.05409594  0.00292637
 Total coeff printed             0.99899461
  
State   32 52.3160     CI coeff  CI percent
    Config      12  -0.06221279  0.00387043
    Config      13  -0.06221279  0.00387043
    Config      19   0.04121748  0.00169888
    Config      24   0.04777094  0.00228206
    Config      30  -0.06427374  0.00413111
    Config      31  -0.16138167  0.02604404
    Config      32   0.97490975  0.95044901
    Config      33   0.08424167  0.00709666
 Total coeff printed             0.99944264
  
State   33 53.4766     CI coeff  CI percent
    Config       4  -0.04166952  0.00173635
    Config       5  -0.04166952  0.00173635
    Config      18  -0.04058028  0.00164676
    Config      30  -0.10828727  0.01172613
    Config      31   0.06652583  0.00442569
    Config      32  -0.07953427  0.00632570
    Config      33   0.98528379  0.97078414
 Total coeff printed             0.99838111
  

 -------------------------------------------------------------------------------
 INDO CIS RELSCF=0.0001
 carbon dioxide



     NO PARAMETERS MARKED FOR OPTIMIZATION, SO 1SCF WAS USED  
     SCF FIELD WAS ACHIEVED                                   


                              INDO CALCULATION
                                                       MOPAC2016 (Version: 20.173L)
                                                       Wed Oct 11 10:33:17 2023




          FINAL HEAT OF FORMATION =     -18074.38939 KCAL/MOL =  -75623.24520 KJ/MOL


          TOTAL ENERGY            =       -796.35629 EV
          ELECTRONIC ENERGY       =      -1282.42904 EV  POINT GROUP:     D*h 
          CORE-CORE REPULSION     =        486.07275 EV
          COSMO AREA              =         65.78 SQUARE ANGSTROMS
          COSMO VOLUME            =         47.43 CUBIC ANGSTROMS

          IONIZATION POTENTIAL    =         12.639487 EV
          HOMO LUMO ENERGIES (EV) =        -12.639 -0.045
          NO. OF FILLED LEVELS    =          8
          MOLECULAR WEIGHT        =         44.0098

          MOLECULAR DIMENSIONS (Angstroms)

            Atom       Atom       Distance
            O     3    O     1     2.35929
            O     3    O     1     0.00000
            O     1    C     2     0.00000


          SCF CALCULATIONS        =          1
 
          WALL-CLOCK TIME         =          0.035 SECONDS
          COMPUTATION TIME        =          0.013 SECONDS




   ATOM   CHEMICAL          X               Y               Z
  NUMBER   SYMBOL      (ANGSTROMS)     (ANGSTROMS)     (ANGSTROMS)
 
     1       O          0.00000000      0.00000000     -0.00330000   
     2       C          0.00000000      0.00000000      1.18845000   
     3       O          0.00000000      0.00000000      2.35599000   

                             CARTESIAN COORDINATES

   1    O        0.000000000     0.000000000    -0.003300000
   2    C        0.000000000     0.000000000     1.188450000
   3    O        0.000000000     0.000000000     2.355990000


           Empirical Formula: C O2  =     3 atoms



      MOLECULAR POINT GROUP   :   D*h 


                  EIGENVALUES  
 -43.96639 -42.36977 -19.43849 -17.23665 -17.01616 -17.01616 -12.63949 -12.63949
  -0.04525  -0.04525   3.46146  14.18268


              NET ATOMIC CHARGES AND DIPOLE CONTRIBUTIONS

  ATOM NO.   TYPE          CHARGE      No. of ELECS.   s-Pop       p-Pop       
    1          O          -0.361688        6.3617     1.80819     4.55350
    2          C           0.696849        3.3032     1.08330     2.21986
    3          O          -0.335161        6.3352     1.79729     4.53787
 DIPOLE           X         Y         Z       TOTAL
 POINT-CHG.     0.000     0.000     0.191     0.191
 HYBRID         0.000     0.000     0.014     0.014
 SUM            0.000     0.000     0.205     0.205


          ATOMIC ORBITAL ELECTRON POPULATIONS

     Atom    s        px        py        pz   
    1  O   1.80819   1.66965   1.66965   1.21420
    2  C   1.08330   0.67992   0.67992   0.86001
    3  O   1.79729   1.65043   1.65043   1.23701

 **********************
 *                    *
 * JOB ENDED NORMALLY *
 *                    *
 **********************



 TOTAL JOB TIME:             0.07 SECONDS

 == MOPAC DONE ==
