 *******************************************************************************
 ** Site#:    0         For non-commercial use only    Version 20.173L 64BITS **
 *******************************************************************************
 ** Cite this program as: MOPAC2016, Version: 20.173L, James J. P. Stewart,   **
 ** Stewart Computational Chemistry, web-site: HTTP://OpenMOPAC.net.          **
 *******************************************************************************
 **                                                                           **
 **                                MOPAC2016                                  **
 **                                                                           **
 *******************************************************************************

                              INDO CALCULATION RESULTS

 *******************************************************************************
 *  CALCULATION DONE:                                Wed Oct 11 10:33:20 2023  *
 *  INDO       - The INDO Hamiltonian to be used
 *  CIS        - C.I. USES 1 ELECTRON EXCITATIONS ONLY
 *  T=         - A TIME OF 172800.0 SECONDS REQUESTED
 *  DUMP=N     - RESTART FILE WRITTEN EVERY 7200.0 SECONDS REQUESTED
 *  RELSCF     - DEFAULT SCF CRITERION MULTIPLIED BY 0.0001
 *              (DEFAULT SCF CRITERION = 0.00010)
 *******************************************************************************
INDO CIS RELSCF=0.0001
 carbon dioxide

   ATOM   CHEMICAL          X               Y               Z
  NUMBER   SYMBOL      (ANGSTROMS)     (ANGSTROMS)     (ANGSTROMS)
 
     1       O          0.00000000      0.00000000      0.00330000   
     2       C          0.00000000      0.00000000      1.17085000   
     3       O          0.00000000      0.00000000      2.36259000   
 


          CARTESIAN COORDINATES 

    NO.       ATOM           X           Y           Z

     1         O          0.0000      0.0000      0.0033
     2         C          0.0000      0.0000      1.1708
     3         O          0.0000      0.0000      2.3626

           Empirical Formula: C O2  =     3 atoms



      MOLECULAR POINT GROUP   :   D*h 


      RHF CALCULATION, NO. OF DOUBLY OCCUPIED LEVELS = 8

 WARNING: INDO only performs single-point calculations
  SCF CRITERION =    0.1000E-07

 Summary of symmetry occupancy in each shell:

 SHELL     
    1    8
    v    4
 TOTAL  12




    ROOT NO.    1           2           3           4           5           6

           -43.96630   -42.36986   -19.43849   -17.23666   -17.01615   -17.01615
  
  
  S  O   1   0.62849    -0.46108    -0.42052    -0.33795     0.00000     0.00000
 PX  O   1  -0.00000    -0.00000    -0.00000     0.00000     0.59907    -0.00002
 PY  O   1   0.00000    -0.00000     0.00000     0.00000     0.00002     0.59907
 PZ  O   1   0.22338    -0.13146     0.49554     0.55295    -0.00000    -0.00000
  
  S  C   2   0.58855     0.10998     0.42782    -0.01128     0.00000    -0.00000
 PX  C   2   0.00000     0.00000    -0.00000     0.00000     0.58289    -0.00002
 PY  C   2   0.00000    -0.00000     0.00000     0.00000     0.00002     0.58289
 PZ  C   2  -0.10048     0.52917     0.00007    -0.37402     0.00000     0.00000
  
  S  O   3   0.41697     0.66005    -0.41377     0.35123    -0.00000    -0.00000
 PX  O   3   0.00000     0.00000    -0.00000     0.00000     0.54895    -0.00002
 PY  O   3   0.00000     0.00000     0.00000     0.00000     0.00002     0.54895
 PZ  O   3  -0.15730    -0.20580    -0.47262     0.56271    -0.00000     0.00000




    ROOT NO.    7           8           9          10          11          12

           -12.63950   -12.63950    -0.04525    -0.04525     3.46146    14.18268
  
  
  S  O   1   0.00000    -0.00000    -0.00000     0.00000    -0.20860     0.24049
 PX  O   1  -0.68289     0.00000    -0.41807     0.00001     0.00000    -0.00000
 PY  O   1  -0.00000    -0.68289    -0.00001    -0.41807    -0.00000     0.00000
 PZ  O   1  -0.00000     0.00000    -0.00000     0.00000    -0.47219     0.39816
  
  S  C   2   0.00000     0.00000     0.00000    -0.00000     0.67697    -0.00783
 PX  C   2   0.01397    -0.00000     0.81243    -0.00002    -0.00000    -0.00000
 PY  C   2   0.00000     0.01397     0.00002     0.81243     0.00000    -0.00000
 PZ  C   2   0.00000     0.00000     0.00000     0.00000     0.00384     0.75497
  
  S  O   3  -0.00000     0.00000    -0.00000     0.00000    -0.20509    -0.23205
 PX  O   3   0.73039    -0.00000    -0.40642     0.00001     0.00000     0.00000
 PY  O   3   0.00000     0.73039    -0.00001    -0.40642    -0.00000    -0.00000
 PZ  O   3  -0.00000     0.00000     0.00000    -0.00000     0.48286     0.39968


 Reference determinate nber   1 is ALPHA 1 -   8
 SINGLE excitations FROM orbs   1 to   8 INTO orbs   9 to  12
 

 CI excitations=   33:        = 33
 The lowest   33 spin-adapted configurations of multiplicity=  1
     sym   eV   cm**-1 -dets- dipole oscilator X FRAG ....Excitations named from first reference determinate
                       tot  #  Debye  strength
 
   1      0.000      0.  1  1  0.2046 0.000000 0  0 (    )->(       )
   2      5.602  45182.  1  1  0.2685 0.000000 1  1 (   8)->(   9   )
   3      5.602  45182.  1  1  0.2685 0.000000 1  1 (   7)->(  10   )
   4      8.237  66435.  1  1  0.2685 0.680420 1  1 (   8)->(  10   )
   5      8.237  66435.  1  1  0.2685 0.680420 1  1 (   7)->(   9   )
   6      9.120  73559.  1  1  0.1429 0.000006 1  1 (   8)->(  11   )
   7      9.120  73559.  1  1  0.1429 0.000006 1  1 (   7)->(  11   )
   8      9.418  75958.  1  1  0.4575 0.000000 1  1 (   6)->(   9   )
   9      9.418  75958.  1  1  0.4575 0.000000 1  1 (   5)->(  10   )
  10     10.197  82246.  1  1  0.0474 0.000041 1  1 (   4)->(   9   )
  11     10.197  82246.  1  1  0.0474 0.000041 1  1 (   4)->(  10   )
  12     12.153  98022.  1  1  0.4575 0.001497 1  1 (   5)->(   9   )
  13     12.153  98022.  1  1  0.4575 0.001497 1  1 (   6)->(  10   )
  14     12.814 103353.  1  1  0.3214 0.174352 1  1 (   3)->(   9   )
  15     12.814 103353.  1  1  0.3214 0.174352 1  1 (   3)->(  10   )
  16     13.639 110008.  1  1  0.5831 0.026675 1  1 (   6)->(  11   )
  17     13.639 110008.  1  1  0.5831 0.026675 1  1 (   5)->(  11   )
  18     15.114 121905.  1  1  0.0782 0.370942 1  1 (   4)->(  11   )
  19     16.953 136739.  1  1  0.4470 0.000010 1  1 (   3)->(  11   )
  20     20.043 161656.  1  1  0.2416 0.044065 1  1 (   8)->(  12   )
  21     20.043 161656.  1  1  0.2416 0.044065 1  1 (   7)->(  12   )
  22     23.883 192632.  1  1  0.4844 0.000050 1  1 (   6)->(  12   )
  23     23.883 192632.  1  1  0.4844 0.000050 1  1 (   5)->(  12   )
  24     25.435 205146.  1  1  0.0205 0.000350 1  1 (   4)->(  12   )
  25     27.257 219846.  1  1  0.3483 0.053657 1  1 (   3)->(  12   )
  26     35.508 286392.  1  1  1.2973 0.001723 1  1 (   2)->(   9   )
  27     35.508 286392.  1  1  1.2973 0.001723 1  1 (   2)->(  10   )
  28     37.607 303319.  1  1  1.5537 0.041734 1  1 (   1)->(   9   )
  29     37.607 303319.  1  1  1.5537 0.041734 1  1 (   1)->(  10   )
  30     40.921 330053.  1  1  1.1717 0.061215 1  1 (   2)->(  11   )
  31     42.562 343283.  1  1  1.6794 0.001914 1  1 (   1)->(  11   )
  32     51.701 416998.  1  1  1.2704 0.003818 1  1 (   2)->(  12   )
  33     53.080 428123.  1  1  1.5806 0.077029 1  1 (   1)->(  12   )

 Depression of ground-state after CI=          0. cm**-1 Energy= -1282.4290284 eV
 Dipole moment= -0.000000 -0.000000 -0.204562 tot=  0.204562 Debyes


  CI trans.  energy frequency wavelength oscillator ---------polarization---------    dipole   ------components----- 
 st.  symm.    eV      cm-1       nm      strength       x          y         z       moment     x       y       z 

   2      5.4610527    44046.    227.03  0.000000                                   0.199172  -0.000  -0.000   0.199
   3      5.7422533    46315.    215.92  0.000000                                   0.208703  -0.000  -0.000   0.209
   4      5.7422535    46315.    215.92  0.000000                                   0.208703  -0.000  -0.000   0.209
   5      9.0523866    73013.    136.96  0.000001  -0.000001   1.000000  -0.000000  0.118434  -0.000  -0.000   0.118
   6      9.0523866    73013.    136.96  0.000001  -1.000000  -0.000001  -0.000000  0.118434  -0.000  -0.000   0.118
   7      9.2032844    74230.    134.72  0.000000                                   0.388134  -0.000  -0.000  -0.388
   8      9.3989054    75807.    131.91  0.886627   0.000000   0.000000  -1.000000  0.329813  -0.000  -0.000   0.330
   9      9.6323498    77690.    128.72  0.000000                                   0.397665  -0.000   0.000  -0.398
  10      9.6323498    77690.    128.72  0.000000                                   0.397665  -0.000   0.000  -0.398
  11     10.1773552    82086.    121.82  0.000001   1.000000   0.000032   0.000000  0.133978  -0.000  -0.000  -0.134
  12     10.1773552    82086.    121.82  0.000001   0.000032  -1.000000   0.000000  0.133978  -0.000  -0.000  -0.134
  13     12.7345868   102712.     97.36  0.127055   1.000000  -0.000041  -0.000000  0.194866   0.000  -0.000  -0.195
  14     12.7345868   102712.     97.36  0.127055  -0.000041  -1.000000  -0.000000  0.194866  -0.000   0.000  -0.195
  15     12.9388725   104359.     95.82  0.001876  -0.000000  -0.000000   1.000000  0.589642  -0.000  -0.000  -0.590
  16     13.5492391   109282.     91.51  0.064112  -0.000066   1.000000   0.000000  0.513360  -0.000  -0.000  -0.513
  17     13.5492391   109282.     91.51  0.064112  -1.000000  -0.000066  -0.000000  0.513360  -0.000  -0.000  -0.513
  18     15.9855436   128932.     77.56  1.363575  -0.000000  -0.000000  -1.000000  0.015533  -0.000  -0.000   0.016
  19     17.7975365   143547.     69.66  0.000604  -0.000000   0.000000   1.000000  0.435677  -0.000  -0.000  -0.436
  20     20.1848871   162803.     61.42  0.063090   0.000015   1.000000  -0.000000  0.292383  -0.000  -0.000   0.292
  21     20.1848871   162803.     61.42  0.063090  -1.000000   0.000015   0.000000  0.292383  -0.000  -0.000   0.292
  22     23.9345179   193045.     51.80  0.000075   0.000082   1.000000   0.000000  0.529145  -0.000  -0.000  -0.529
  23     23.9345179   193045.     51.80  0.000075   1.000000  -0.000082  -0.000000  0.529145  -0.000  -0.000  -0.529
  24     25.6511458   206891.     48.33  0.000193  -0.000000   0.000000   1.000000  0.089089  -0.000  -0.000  -0.089
  25     27.2554841   219831.     45.49  0.120737  -0.000000  -0.000000   1.000000  0.271404  -0.000  -0.000  -0.271
  26     35.5364316   286621.     34.89  0.000860   1.000000   0.000044  -0.000000  0.905518  -0.000  -0.000   0.906
  27     35.5364316   286621.     34.89  0.000860  -0.000044   1.000000  -0.000000  0.905518  -0.000   0.000   0.906
  28     37.6418453   303603.     32.94  0.040033  -1.000000   0.000048   0.000000  1.158457  -0.000  -0.000  -1.158
  29     37.6418453   303603.     32.94  0.040033  -0.000048  -1.000000   0.000000  1.158457  -0.000  -0.000  -1.158
  30     41.0046272   330725.     30.24  0.198265   0.000000  -0.000000  -1.000000  1.360178  -0.000  -0.000   1.360
  31     42.6045467   343630.     29.10  0.005394   0.000000   0.000000   1.000000  1.847978  -0.000  -0.000  -1.848
  32     52.3161495   421959.     23.70  0.024851  -0.000000   0.000000   1.000000  1.289063  -0.000  -0.000   1.289
  33     53.4764483   431318.     23.18  0.286901   0.000000  -0.000000  -1.000000  1.620850  -0.000  -0.000  -1.621
 
 Polarizability (au  ) xx=    2.92 xy=    0.00 yy=    2.92 xz=   -0.00 yz=   -0.00 zz=   35.05
 Polarizability (A**3) xx=    0.43 xy=    0.00 yy=    0.43 xz=   -0.00 yz=   -0.00 zz=    5.19
 
 
 Major CI contributions to CI states
 
State    1  0.0000     CI coeff  CI percent
    Config       1   1.00000000  1.00000000
 Total coeff printed             1.00000000
  
State    2  5.4611     CI coeff  CI percent
    Config       2   0.70708660  0.49997146
    Config       3  -0.70708660  0.49997146
 Total coeff printed             0.99994293
  
State    3  5.7423     CI coeff  CI percent
    Config       2  -0.49997851  0.24997851
    Config       3  -0.49997851  0.24997851
    Config       4   0.50000025  0.25000025
    Config       5  -0.50000025  0.25000025
 Total coeff printed             0.99995753
  
State    4  5.7423     CI coeff  CI percent
    Config       2   0.50000025  0.25000025
    Config       3   0.50000025  0.25000025
    Config       4   0.49997851  0.24997851
    Config       5  -0.49997851  0.24997851
 Total coeff printed             0.99995753
  
State    5  9.0524     CI coeff  CI percent
    Config       6   0.99752841  0.99506294
    Config      22   0.06482713  0.00420256
 Total coeff printed             0.99926549
  
State    6  9.0524     CI coeff  CI percent
    Config       7  -0.99752841  0.99506294
    Config      23  -0.06482713  0.00420256
 Total coeff printed             0.99926549
  
State    7  9.2033     CI coeff  CI percent
    Config       8  -0.70708660  0.49997146
    Config       9   0.70708660  0.49997146
 Total coeff printed             0.99994293
  
State    8  9.3989     CI coeff  CI percent
    Config       4   0.64991772  0.42239304
    Config       5   0.64991772  0.42239304
    Config      18   0.38359826  0.14714763
    Config      25  -0.06523370  0.00425544
    Config      30  -0.04941791  0.00244213
 Total coeff printed             0.99863128
  
State    9  9.6323     CI coeff  CI percent
    Config       8  -0.49975827  0.24975833
    Config       9  -0.49975827  0.24975833
    Config      12  -0.50022038  0.25022043
    Config      13   0.50022038  0.25022043
 Total coeff printed             0.99995753
  
State   10  9.6323     CI coeff  CI percent
    Config       8  -0.50022038  0.25022043
    Config       9  -0.50022038  0.25022043
    Config      12   0.49975827  0.24975833
    Config      13  -0.49975827  0.24975833
 Total coeff printed             0.99995753
  
State   11 10.1774     CI coeff  CI percent
    Config      10  -0.99925212  0.99850481
 Total coeff printed             0.99850481
  
State   12 10.1774     CI coeff  CI percent
    Config      11   0.99925212  0.99850481
 Total coeff printed             0.99850481
  
State   13 12.7346     CI coeff  CI percent
    Config      14   0.95396318  0.91004575
    Config      17  -0.29806037  0.08883998
 Total coeff printed             0.99888573
  
State   14 12.7346     CI coeff  CI percent
    Config      15  -0.95396318  0.91004575
    Config      16   0.29806037  0.08883998
 Total coeff printed             0.99888573
  
State   15 12.9389     CI coeff  CI percent
    Config      12   0.62491084  0.39051356
    Config      13   0.62491084  0.39051356
    Config      19  -0.43649190  0.19052518
    Config      24   0.14830667  0.02199487
    Config      31  -0.05894100  0.00347404
    Config      32  -0.04477438  0.00200475
 Total coeff printed             0.99902595
  
State   16 13.5492     CI coeff  CI percent
    Config      15   0.29849332  0.08909826
    Config      16   0.94270441  0.88869160
    Config      20   0.14662029  0.02149751
 Total coeff printed             0.99928738
  
State   17 13.5492     CI coeff  CI percent
    Config      14  -0.29849332  0.08909826
    Config      17  -0.94270441  0.88869160
    Config      21  -0.14662029  0.02149751
 Total coeff printed             0.99928738
  
State   18 15.9855     CI coeff  CI percent
    Config       4   0.26679783  0.07118108
    Config       5   0.26679783  0.07118108
    Config      18  -0.92142370  0.84902163
    Config      30  -0.06395202  0.00408986
    Config      33  -0.05336365  0.00284768
 Total coeff printed             0.99832134
  
State   19 17.7975     CI coeff  CI percent
    Config      12   0.29594547  0.08758372
    Config      13   0.29594547  0.08758372
    Config      19   0.89793278  0.80628327
    Config      24   0.10511745  0.01104968
    Config      31  -0.05896647  0.00347704
    Config      32  -0.06127431  0.00375454
 Total coeff printed             0.99973198
  
State   20 20.1849     CI coeff  CI percent
    Config      16   0.14712909  0.02164697
    Config      20  -0.98874906  0.97762470
 Total coeff printed             0.99927166
  
State   21 20.1849     CI coeff  CI percent
    Config      17  -0.14712909  0.02164697
    Config      21   0.98874906  0.97762470
 Total coeff printed             0.99927166
  
State   22 23.9345     CI coeff  CI percent
    Config       6  -0.06525829  0.00425864
    Config      22   0.99736373  0.99473442
 Total coeff printed             0.99899306
  
State   23 23.9345     CI coeff  CI percent
    Config       7  -0.06525829  0.00425864
    Config      23   0.99736373  0.99473442
 Total coeff printed             0.99899306
  
State   24 25.6511     CI coeff  CI percent
    Config      12  -0.11907604  0.01417910
    Config      13  -0.11907604  0.01417910
    Config      24   0.97947861  0.95937834
    Config      31   0.09290019  0.00863045
    Config      32   0.04847821  0.00235014
 Total coeff printed             0.99871713
  
State   25 27.2555     CI coeff  CI percent
    Config       4  -0.04601566  0.00211744
    Config       5  -0.04601566  0.00211744
    Config      25  -0.99444302  0.98891691
    Config      30   0.07884376  0.00621634
 Total coeff printed             0.99936813
  
State   26 35.5364     CI coeff  CI percent
    Config      26   0.99754188  0.99508980
    Config      28  -0.05500548  0.00302560
 Total coeff printed             0.99811540
  
State   27 35.5364     CI coeff  CI percent
    Config      27   0.99754188  0.99508980
    Config      29  -0.05500548  0.00302560
 Total coeff printed             0.99811540
  
State   28 37.6418     CI coeff  CI percent
    Config      26  -0.05512944  0.00303925
    Config      28  -0.99786288  0.99573033
 Total coeff printed             0.99876958
  
State   29 37.6418     CI coeff  CI percent
    Config      27  -0.05512944  0.00303925
    Config      29  -0.99786288  0.99573033
 Total coeff printed             0.99876958
  
State   30 41.0046     CI coeff  CI percent
    Config       4   0.04828833  0.00233176
    Config       5   0.04828833  0.00233176
    Config      25   0.07145131  0.00510529
    Config      30   0.98514707  0.97051475
    Config      32  -0.05533471  0.00306193
    Config      33  -0.12085735  0.01460650
 Total coeff printed             0.99795200
  
State   31 42.6045     CI coeff  CI percent
    Config      12   0.05567481  0.00309968
    Config      13   0.05567481  0.00309968
    Config      24  -0.06940159  0.00481658
    Config      31   0.97631307  0.95318721
    Config      32  -0.17852147  0.03186992
    Config      33   0.05405704  0.00292216
 Total coeff printed             0.99899524
  
State   32 52.3161     CI coeff  CI percent
    Config      12  -0.06221671  0.00387092
    Config      13  -0.06221671  0.00387092
    Config      19  -0.04121956  0.00169905
    Config      24   0.04777314  0.00228227
    Config      30  -0.06423132  0.00412566
    Config      31  -0.16140215  0.02605065
    Config      32  -0.97491246  0.95045430
    Config      33  -0.08419972  0.00708959
 Total coeff printed             0.99944338
  
State   33 53.4764     CI coeff  CI percent
    Config       4   0.04167244  0.00173659
    Config       5   0.04167244  0.00173659
    Config      18  -0.04058290  0.00164697
    Config      30   0.10830810  0.01173065
    Config      31  -0.06648298  0.00441999
    Config      32  -0.07949541  0.00631952
    Config      33   0.98528784  0.97079212
 Total coeff printed             0.99838243
  

 -------------------------------------------------------------------------------
 INDO CIS RELSCF=0.0001
 carbon dioxide



     NO PARAMETERS MARKED FOR OPTIMIZATION, SO 1SCF WAS USED  
     SCF FIELD WAS ACHIEVED                                   


                              INDO CALCULATION
                                                       MOPAC2016 (Version: 20.173L)
                                                       Wed Oct 11 10:33:20 2023




          FINAL HEAT OF FORMATION =     -18074.38937 KCAL/MOL =  -75623.24513 KJ/MOL


          TOTAL ENERGY            =       -796.35629 EV
          ELECTRONIC ENERGY       =      -1282.42903 EV  POINT GROUP:     D*h 
          CORE-CORE REPULSION     =        486.07274 EV
          COSMO AREA              =         65.78 SQUARE ANGSTROMS
          COSMO VOLUME            =         47.43 CUBIC ANGSTROMS

          IONIZATION POTENTIAL    =         12.639495 EV
          HOMO LUMO ENERGIES (EV) =        -12.639 -0.045
          NO. OF FILLED LEVELS    =          8
          MOLECULAR WEIGHT        =         44.0098

          MOLECULAR DIMENSIONS (Angstroms)

            Atom       Atom       Distance
            O     3    O     1     2.35929
            O     3    O     1     0.00000
            O     1    C     2     0.00000


          SCF CALCULATIONS        =          1
 
          WALL-CLOCK TIME         =          0.035 SECONDS
          COMPUTATION TIME        =          0.013 SECONDS




   ATOM   CHEMICAL          X               Y               Z
  NUMBER   SYMBOL      (ANGSTROMS)     (ANGSTROMS)     (ANGSTROMS)
 
     1       O          0.00000000      0.00000000      0.00330000   
     2       C          0.00000000      0.00000000      1.17085000   
     3       O          0.00000000      0.00000000      2.36259000   

                             CARTESIAN COORDINATES

   1    O        0.000000000     0.000000000     0.003300000
   2    C        0.000000000     0.000000000     1.170850000
   3    O        0.000000000     0.000000000     2.362590000


           Empirical Formula: C O2  =     3 atoms



      MOLECULAR POINT GROUP   :   D*h 


                  EIGENVALUES  
 -43.96630 -42.36986 -19.43849 -17.23666 -17.01615 -17.01615 -12.63950 -12.63950
  -0.04525  -0.04525   3.46146  14.18268


              NET ATOMIC CHARGES AND DIPOLE CONTRIBUTIONS

  ATOM NO.   TYPE          CHARGE      No. of ELECS.   s-Pop       p-Pop       
    1          O          -0.335172        6.3352     1.79730     4.53787
    2          C           0.696849        3.3032     1.08329     2.21986
    3          O          -0.361677        6.3617     1.80818     4.55349
 DIPOLE           X         Y         Z       TOTAL
 POINT-CHG.     0.000     0.000    -0.191     0.191
 HYBRID        -0.000    -0.000    -0.014     0.014
 SUM           -0.000    -0.000    -0.205     0.205


          ATOMIC ORBITAL ELECTRON POPULATIONS

     Atom    s        px        py        pz   
    1  O   1.79730   1.65044   1.65044   1.23700
    2  C   1.08329   0.67992   0.67992   0.86001
    3  O   1.80818   1.66964   1.66964   1.21421

 **********************
 *                    *
 * JOB ENDED NORMALLY *
 *                    *
 **********************



 TOTAL JOB TIME:             0.06 SECONDS

 == MOPAC DONE ==
