 *******************************************************************************
 ** Site#:    0         For non-commercial use only    Version 20.173L 64BITS **
 *******************************************************************************
 ** Cite this program as: MOPAC2016, Version: 20.173L, James J. P. Stewart,   **
 ** Stewart Computational Chemistry, web-site: HTTP://OpenMOPAC.net.          **
 *******************************************************************************
 **                                                                           **
 **                                MOPAC2016                                  **
 **                                                                           **
 *******************************************************************************

                              INDO CALCULATION RESULTS

 *******************************************************************************
 *  CALCULATION DONE:                                Wed Oct 11 10:33:11 2023  *
 *  INDO       - The INDO Hamiltonian to be used
 *  CIS        - C.I. USES 1 ELECTRON EXCITATIONS ONLY
 *  T=         - A TIME OF 172800.0 SECONDS REQUESTED
 *  DUMP=N     - RESTART FILE WRITTEN EVERY 7200.0 SECONDS REQUESTED
 *  RELSCF     - DEFAULT SCF CRITERION MULTIPLIED BY 0.0001
 *              (DEFAULT SCF CRITERION = 0.00010)
 *******************************************************************************
INDO CIS RELSCF=0.0001
 carbon dioxide

   ATOM   CHEMICAL          X               Y               Z
  NUMBER   SYMBOL      (ANGSTROMS)     (ANGSTROMS)     (ANGSTROMS)
 
     1       O          0.00000000      0.00000000      0.00710000   
     2       C          0.00000000      0.00000000      1.17965000   
     3       O          0.00000000      0.00000000      2.35219000   
 


          CARTESIAN COORDINATES 

    NO.       ATOM           X           Y           Z

     1         O          0.0000      0.0000      0.0071
     2         C          0.0000      0.0000      1.1797
     3         O          0.0000      0.0000      2.3522

           Empirical Formula: C O2  =     3 atoms



      MOLECULAR POINT GROUP   :   D*h 


      RHF CALCULATION, NO. OF DOUBLY OCCUPIED LEVELS = 8

 WARNING: INDO only performs single-point calculations
  SCF CRITERION =    0.1000E-07

 Summary of symmetry occupancy in each shell:

 SHELL     
    1    8
    v    4
 TOTAL  12




    ROOT NO.    1           2           3           4           5           6

           -44.09161   -42.49808   -19.41434   -17.17386   -17.08029   -17.08029
  
  
  S  O   1   0.53140     0.57039     0.41706    -0.34364     0.00000    -0.00000
 PX  O   1  -0.00000    -0.00000    -0.00000     0.00000     0.57374    -0.00003
 PY  O   1  -0.00000    -0.00000     0.00000    -0.00000     0.00003     0.57374
 PZ  O   1   0.19494     0.17087    -0.48625     0.55905    -0.00000     0.00000
  
  S  C   2   0.59927     0.00005    -0.42334     0.00000    -0.00000     0.00000
 PX  C   2  -0.00000    -0.00000    -0.00000     0.00000     0.58449    -0.00003
 PY  C   2  -0.00000     0.00000     0.00000    -0.00000     0.00003     0.58449
 PZ  C   2   0.00004    -0.53946    -0.00000    -0.37252     0.00000    -0.00000
  
  S  O   3   0.53148    -0.57031     0.41707     0.34363    -0.00000     0.00000
 PX  O   3  -0.00000    -0.00000    -0.00000     0.00000     0.57376    -0.00003
 PY  O   3   0.00000     0.00000     0.00000    -0.00000     0.00003     0.57376
 PZ  O   3  -0.19496     0.17084     0.48626     0.55904    -0.00000     0.00000




    ROOT NO.    7           8           9          10          11          12

           -12.64093   -12.64093     0.03244     0.03244     3.55278    14.26244
  
  
  S  O   1  -0.00000     0.00000    -0.00000     0.00000    -0.20887     0.23793
 PX  O   1   0.70712     0.00003    -0.41329    -0.00000     0.00000    -0.00000
 PY  O   1  -0.00003     0.70712     0.00000    -0.41329    -0.00000    -0.00000
 PZ  O   1   0.00000    -0.00000    -0.00000     0.00000    -0.47492     0.39784
  
  S  C   2   0.00000     0.00000     0.00000    -0.00000     0.67945     0.00000
 PX  C   2   0.00001     0.00000     0.81140     0.00000    -0.00000     0.00000
 PY  C   2  -0.00000     0.00001    -0.00000     0.81140     0.00000     0.00000
 PZ  C   2  -0.00000     0.00000    -0.00000    -0.00000    -0.00000     0.75512
  
  S  O   3   0.00000    -0.00000    -0.00000     0.00000    -0.20887    -0.23794
 PX  O   3  -0.70710    -0.00003    -0.41330    -0.00000     0.00000     0.00000
 PY  O   3   0.00003    -0.70710     0.00000    -0.41330    -0.00000     0.00000
 PZ  O   3   0.00000    -0.00000     0.00000    -0.00000     0.47492     0.39784


 Reference determinate nber   1 is ALPHA 1 -   8
 SINGLE excitations FROM orbs   1 to   8 INTO orbs   9 to  12
 

 CI excitations=   33:        = 33
 The lowest   33 spin-adapted configurations of multiplicity=  1
     sym   eV   cm**-1 -dets- dipole oscilator X FRAG ....Excitations named from first reference determinate
                       tot  #  Debye  strength
 
   1      0.000      0.  1  1  0.0001 0.000000 0  0 (    )->(       )
   2      5.661  45661.  1  1  0.0001 0.000000 1  1 (   8)->(   9   )
   3      5.661  45661.  1  1  0.0001 0.000000 1  1 (   7)->(  10   )
   4      8.307  67002.  1  1  0.0001 0.682732 1  1 (   8)->(  10   )
   5      8.307  67002.  1  1  0.0001 0.682732 1  1 (   7)->(   9   )
   6      9.209  74278.  1  1  0.0001 0.000000 1  1 (   8)->(  11   )
   7      9.209  74278.  1  1  0.0001 0.000000 1  1 (   7)->(  11   )
   8      9.548  77010.  1  1  0.0002 0.000000 1  1 (   6)->(   9   )
   9      9.548  77010.  1  1  0.0002 0.000000 1  1 (   5)->(  10   )
  10     10.198  82255.  1  1  0.0000 0.000000 1  1 (   4)->(   9   )
  11     10.198  82255.  1  1  0.0000 0.000000 1  1 (   4)->(  10   )
  12     12.275  99007.  1  1  0.0002 0.000000 1  1 (   6)->(  10   )
  13     12.275  99007.  1  1  0.0002 0.000000 1  1 (   5)->(   9   )
  14     12.854 103674.  1  1  0.0001 0.172824 1  1 (   3)->(   9   )
  15     12.854 103674.  1  1  0.0001 0.172824 1  1 (   3)->(  10   )
  16     13.788 111210.  1  1  0.0002 0.027209 1  1 (   6)->(  11   )
  17     13.788 111210.  1  1  0.0002 0.027209 1  1 (   5)->(  11   )
  18     15.110 121867.  1  1  0.0000 0.355145 1  1 (   4)->(  11   )
  19     16.991 137046.  1  1  0.0002 0.000000 1  1 (   3)->(  11   )
  20     20.114 162228.  1  1  0.0001 0.044919 1  1 (   8)->(  12   )
  21     20.114 162228.  1  1  0.0001 0.044919 1  1 (   7)->(  12   )
  22     24.016 193702.  1  1  0.0002 0.000000 1  1 (   6)->(  12   )
  23     24.016 193702.  1  1  0.0002 0.000000 1  1 (   5)->(  12   )
  24     25.429 205099.  1  1  0.0000 0.000000 1  1 (   4)->(  12   )
  25     27.297 220163.  1  1  0.0002 0.052083 1  1 (   3)->(  12   )
  26     35.678 287760.  1  1  0.0005 0.000000 1  1 (   2)->(   9   )
  27     35.678 287760.  1  1  0.0005 0.000000 1  1 (   2)->(  10   )
  28     37.824 305072.  1  1  0.0006 0.043498 1  1 (   1)->(   9   )
  29     37.824 305072.  1  1  0.0006 0.043498 1  1 (   1)->(  10   )
  30     41.110 331576.  1  1  0.0005 0.060259 1  1 (   2)->(  11   )
  31     42.775 345004.  1  1  0.0007 0.000000 1  1 (   1)->(  11   )
  32     51.900 418606.  1  1  0.0005 0.000000 1  1 (   2)->(  12   )
  33     53.269 429643.  1  1  0.0007 0.079925 1  1 (   1)->(  12   )

 Depression of ground-state after CI=          0. cm**-1 Energy= -1284.5267359 eV
 Dipole moment= -0.000000  0.000000  0.000083 tot=  0.000083 Debyes


  CI trans.  energy frequency wavelength oscillator ---------polarization---------    dipole   ------components----- 
 st.  symm.    eV      cm-1       nm      strength       x          y         z       moment     x       y       z 

   2      5.5197267    44520.    224.62  0.000000                                   0.000089  -0.000   0.000  -0.000
   3      5.8027106    46802.    213.67  0.000000                                   0.000092  -0.000   0.000  -0.000
   4      5.8027106    46802.    213.67  0.000000                                   0.000092  -0.000   0.000  -0.000
   5      9.1435243    73748.    135.60  0.000000                                   0.000054  -0.000   0.000  -0.000
   6      9.1435243    73748.    135.60  0.000000                                   0.000054  -0.000   0.000  -0.000
   7      9.3331221    75277.    132.84  0.000000                                   0.000165  -0.000   0.000   0.000
   8      9.4774115    76441.    130.82  0.892478  -0.000000   0.000000   1.000000  0.000140  -0.000   0.000  -0.000
   9      9.7628778    78743.    127.00  0.000000                                   0.000168  -0.000   0.000   0.000
  10      9.7628778    78743.    127.00  0.000000                                   0.000168  -0.000   0.000   0.000
  11     10.1795525    82104.    121.80  0.000000                                   0.000044  -0.000   0.000   0.000
  12     10.1795525    82104.    121.80  0.000000                                   0.000044  -0.000   0.000   0.000
  13     12.7843972   103113.     96.98  0.132255   1.000000   0.000013  -0.000000  0.000084   0.000   0.000   0.000
  14     12.7843972   103113.     96.98  0.132255  -0.000013   1.000000   0.000000  0.000084  -0.000  -0.000   0.000
  15     13.0544745   105292.     94.97  0.000000                                   0.000245  -0.000   0.000   0.000
  16     13.6886713   110407.     90.57  0.057560  -0.000067   1.000000  -0.000000  0.000215  -0.000   0.000   0.000
  17     13.6886713   110407.     90.57  0.057560   1.000000   0.000067   0.000000  0.000215  -0.000  -0.000   0.000
  18     15.9831602   128913.     77.57  1.338728  -0.000000   0.000000  -1.000000  0.000026   0.000  -0.000  -0.000
  19     17.8391554   143883.     69.50  0.000000                                   0.000191  -0.000   0.000   0.000
  20     20.2542036   163362.     61.21  0.064212   0.000082   1.000000   0.000000  0.000127  -0.000   0.000  -0.000
  21     20.2542036   163362.     61.21  0.064212  -1.000000   0.000082   0.000000  0.000127  -0.000   0.000  -0.000
  22     24.0653343   194101.     51.52  0.000000                                   0.000225  -0.000   0.000   0.000
  23     24.0653343   194101.     51.52  0.000000                                   0.000225  -0.000   0.000   0.000
  24     25.6477202   206863.     48.34  0.000000                                   0.000021  -0.000   0.000   0.000
  25     27.2953208   220152.     45.42  0.118114  -0.000000   0.000000   1.000000  0.000126  -0.000   0.000   0.000
  26     35.7126841   288043.     34.72  0.000000                                   0.000372  -0.000   0.000  -0.000
  27     35.7126841   288043.     34.72  0.000000                                   0.000372  -0.000   0.000  -0.000
  28     37.8525492   305302.     32.75  0.040939  -1.000000  -0.000017  -0.000000  0.000475  -0.000   0.000   0.000
  29     37.8525492   305302.     32.75  0.040939   0.000017  -1.000000   0.000000  0.000475  -0.000   0.000   0.000
  30     41.1928679   332244.     30.10  0.196786  -0.000000   0.000000   1.000000  0.000569  -0.000   0.000  -0.001
  31     42.8080401   345271.     28.96  0.000000                                   0.000764  -0.000  -0.000   0.001
  32     52.5340718   423717.     23.60  0.000000                                   0.000557  -0.000   0.000  -0.001
  33     53.6478862   432700.     23.11  0.306849   0.000000  -0.000000  -1.000000  0.000693  -0.000   0.000   0.001
 
 Polarizability (au  ) xx=    2.89 xy=   -0.00 yy=    2.89 xz=   -0.00 yz=    0.00 zz=   34.56
 Polarizability (A**3) xx=    0.43 xy=   -0.00 yy=    0.43 xz=   -0.00 yz=    0.00 zz=    5.12
 
 
 Major CI contributions to CI states
 
State    1  0.0000     CI coeff  CI percent
    Config       1   1.00000000  1.00000000
 Total coeff printed             1.00000000
  
State    2  5.5197     CI coeff  CI percent
    Config       2   0.70710678  0.50000000
    Config       3  -0.70710678  0.50000000
 Total coeff printed             1.00000000
  
State    3  5.8027     CI coeff  CI percent
    Config       4  -0.70625387  0.49879454
    Config       5   0.70625387  0.49879454
 Total coeff printed             0.99758907
  
State    4  5.8027     CI coeff  CI percent
    Config       2  -0.70625387  0.49879454
    Config       3  -0.70625387  0.49879454
 Total coeff printed             0.99758907
  
State    5  9.1435     CI coeff  CI percent
    Config       6  -0.99752968  0.99506545
    Config      22   0.06403985  0.00410110
 Total coeff printed             0.99916656
  
State    6  9.1435     CI coeff  CI percent
    Config       7  -0.99752968  0.99506545
    Config      23   0.06403985  0.00410110
 Total coeff printed             0.99916656
  
State    7  9.3331     CI coeff  CI percent
    Config       8  -0.70710678  0.50000000
    Config       9   0.70710678  0.50000000
 Total coeff printed             1.00000000
  
State    8  9.4774     CI coeff  CI percent
    Config       4   0.64911804  0.42135423
    Config       5   0.64911804  0.42135423
    Config      18  -0.38657804  0.14944258
    Config      25  -0.06552577  0.00429363
    Config      30  -0.04957242  0.00245742
 Total coeff printed             0.99890209
  
State    9  9.7629     CI coeff  CI percent
    Config       8   0.69577500  0.48410285
    Config       9   0.69577500  0.48410285
    Config      12   0.12608389  0.01589715
    Config      13  -0.12608389  0.01589715
 Total coeff printed             1.00000000
  
State   10  9.7629     CI coeff  CI percent
    Config       8  -0.12608389  0.01589715
    Config       9  -0.12608389  0.01589715
    Config      12   0.69577500  0.48410285
    Config      13  -0.69577500  0.48410285
 Total coeff printed             1.00000000
  
State   11 10.1796     CI coeff  CI percent
    Config      10   0.99927196  0.99854445
 Total coeff printed             0.99854445
  
State   12 10.1796     CI coeff  CI percent
    Config      11  -0.99927196  0.99854445
 Total coeff printed             0.99854445
  
State   13 12.7844     CI coeff  CI percent
    Config      14  -0.96479148  0.93082261
    Config      17  -0.26173957  0.06850760
 Total coeff printed             0.99933021
  
State   14 12.7844     CI coeff  CI percent
    Config      15  -0.96479148  0.93082261
    Config      16  -0.26173957  0.06850760
 Total coeff printed             0.99933021
  
State   15 13.0545     CI coeff  CI percent
    Config      12   0.62380439  0.38913192
    Config      13   0.62380439  0.38913192
    Config      19   0.44036955  0.19392534
    Config      24   0.14905551  0.02221754
    Config      31  -0.05933027  0.00352008
    Config      32   0.04553230  0.00207319
 Total coeff printed             1.00000000
  
State   16 13.6887     CI coeff  CI percent
    Config      15  -0.26178173  0.06852967
    Config      16   0.95339002  0.90895253
    Config      20  -0.14782662  0.02185271
 Total coeff printed             0.99933492
  
State   17 13.6887     CI coeff  CI percent
    Config      14  -0.26178173  0.06852967
    Config      17   0.95339002  0.90895253
    Config      21  -0.14782662  0.02185271
 Total coeff printed             0.99933492
  
State   18 15.9832     CI coeff  CI percent
    Config       4  -0.26880275  0.07225492
    Config       5  -0.26880275  0.07225492
    Config      18  -0.92060769  0.84751852
    Config      30   0.06469222  0.00418508
    Config      33  -0.05414050  0.00293119
 Total coeff printed             0.99914463
  
State   19 17.8392     CI coeff  CI percent
    Config      12  -0.29865596  0.08919538
    Config      13  -0.29865596  0.08919538
    Config      19   0.89616948  0.80311974
    Config      24  -0.10504703  0.01103488
    Config      31   0.05970351  0.00356451
    Config      32  -0.06237075  0.00389011
 Total coeff printed             1.00000000
  
State   20 20.2542     CI coeff  CI percent
    Config      16   0.14754386  0.02176919
    Config      20   0.98871776  0.97756281
 Total coeff printed             0.99933200
  
State   21 20.2542     CI coeff  CI percent
    Config      17  -0.14754386  0.02176919
    Config      21  -0.98871776  0.97756281
 Total coeff printed             0.99933200
  
State   22 24.0653     CI coeff  CI percent
    Config       6   0.06446813  0.00415614
    Config      22   0.99743032  0.99486724
 Total coeff printed             0.99902338
  
State   23 24.0653     CI coeff  CI percent
    Config       7  -0.06446813  0.00415614
    Config      23  -0.99743032  0.99486724
 Total coeff printed             0.99902338
  
State   24 25.6477     CI coeff  CI percent
    Config      12  -0.11974859  0.01433972
    Config      13  -0.11974859  0.01433972
    Config      24   0.97955934  0.95953650
    Config      31   0.09342582  0.00872838
    Config      32  -0.04911503  0.00241229
 Total coeff printed             0.99935662
  
State   25 27.2953     CI coeff  CI percent
    Config       4   0.04608435  0.00212377
    Config       5   0.04608435  0.00212377
    Config      25   0.99453708  0.98910400
    Config      30  -0.07923172  0.00627767
 Total coeff printed             0.99962920
  
State   26 35.7127     CI coeff  CI percent
    Config      26   0.99905025  0.99810140
 Total coeff printed             0.99810140
  
State   27 35.7127     CI coeff  CI percent
    Config      27   0.99905025  0.99810140
 Total coeff printed             0.99810140
  
State   28 37.8525     CI coeff  CI percent
    Config      28  -0.99939205  0.99878447
 Total coeff printed             0.99878447
  
State   29 37.8525     CI coeff  CI percent
    Config      29  -0.99939205  0.99878447
 Total coeff printed             0.99878447
  
State   30 41.1929     CI coeff  CI percent
    Config       4   0.04853270  0.00235542
    Config       5   0.04853270  0.00235542
    Config      25   0.07161365  0.00512851
    Config      30   0.98589532  0.97198958
    Config      33   0.13002324  0.01690604
 Total coeff printed             0.99873499
  
State   31 42.8080     CI coeff  CI percent
    Config      12   0.05576620  0.00310987
    Config      13   0.05576620  0.00310987
    Config      24  -0.06930994  0.00480387
    Config      31   0.97584331  0.95227016
    Config      32   0.19023597  0.03618972
 Total coeff printed             0.99948349
  
State   32 52.5341     CI coeff  CI percent
    Config      12  -0.06498539  0.00422310
    Config      13  -0.06498539  0.00422310
    Config      19   0.04236781  0.00179503
    Config      24   0.04906335  0.00240721
    Config      31  -0.17865292  0.03191687
    Config      32   0.97746339  0.95543469
 Total coeff printed             1.00000000
  
State   33 53.6479     CI coeff  CI percent
    Config       4  -0.04372255  0.00191166
    Config       5  -0.04372255  0.00191166
    Config      18  -0.04206956  0.00176985
    Config      30  -0.12284234  0.01509024
    Config      33   0.98929172  0.97869810
 Total coeff printed             0.99938151
  

 -------------------------------------------------------------------------------
 INDO CIS RELSCF=0.0001
 carbon dioxide



     NO PARAMETERS MARKED FOR OPTIMIZATION, SO 1SCF WAS USED  
     SCF FIELD WAS ACHIEVED                                   


                              INDO CALCULATION
                                                       MOPAC2016 (Version: 20.173L)
                                                       Wed Oct 11 10:33:11 2023




          FINAL HEAT OF FORMATION =     -18087.94697 KCAL/MOL =  -75679.97011 KJ/MOL


          TOTAL ENERGY            =       -796.94421 EV
          ELECTRONIC ENERGY       =      -1284.52674 EV  POINT GROUP:     D*h 
          CORE-CORE REPULSION     =        487.58253 EV
          COSMO AREA              =         65.67 SQUARE ANGSTROMS
          COSMO VOLUME            =         47.32 CUBIC ANGSTROMS

          IONIZATION POTENTIAL    =         12.640926 EV
          HOMO LUMO ENERGIES (EV) =        -12.641  0.032
          NO. OF FILLED LEVELS    =          8
          MOLECULAR WEIGHT        =         44.0098

          MOLECULAR DIMENSIONS (Angstroms)

            Atom       Atom       Distance
            O     3    O     1     2.34509
            O     3    O     1     0.00000
            O     1    C     2     0.00000


          SCF CALCULATIONS        =          1
 
          WALL-CLOCK TIME         =          0.047 SECONDS
          COMPUTATION TIME        =          0.018 SECONDS




   ATOM   CHEMICAL          X               Y               Z
  NUMBER   SYMBOL      (ANGSTROMS)     (ANGSTROMS)     (ANGSTROMS)
 
     1       O          0.00000000      0.00000000      0.00710000   
     2       C          0.00000000      0.00000000      1.17965000   
     3       O          0.00000000      0.00000000      2.35219000   

                             CARTESIAN COORDINATES

   1    O        0.000000000     0.000000000     0.007100000
   2    C        0.000000000     0.000000000     1.179650000
   3    O        0.000000000     0.000000000     2.352190000


           Empirical Formula: C O2  =     3 atoms



      MOLECULAR POINT GROUP   :   D*h 


                  EIGENVALUES  
 -44.09161 -42.49808 -19.41434 -17.17386 -17.08029 -17.08029 -12.64093 -12.64093
   0.03244   0.03244   3.55278  14.26244


              NET ATOMIC CHARGES AND DIPOLE CONTRIBUTIONS

  ATOM NO.   TYPE          CHARGE      No. of ELECS.   s-Pop       p-Pop       
    1          O          -0.348612        6.3486     1.79952     4.54909
    2          C           0.697212        3.3028     1.07670     2.22609
    3          O          -0.348600        6.3486     1.79952     4.54908
 DIPOLE           X         Y         Z       TOTAL
 POINT-CHG.     0.000     0.000     0.000     0.000
 HYBRID         0.000    -0.000     0.000     0.000
 SUM            0.000    -0.000     0.000     0.000


          ATOMIC ORBITAL ELECTRON POPULATIONS

     Atom    s        px        py        pz   
    1  O   1.79952   1.65837   1.65837   1.23234
    2  C   1.07670   0.68326   0.68326   0.85957
    3  O   1.79952   1.65837   1.65837   1.23235

 **********************
 *                    *
 * JOB ENDED NORMALLY *
 *                    *
 **********************



 TOTAL JOB TIME:             0.08 SECONDS

 == MOPAC DONE ==
