 *******************************************************************************
 ** Site#:    0         For non-commercial use only    Version 20.173L 64BITS **
 *******************************************************************************
 ** Cite this program as: MOPAC2016, Version: 20.173L, James J. P. Stewart,   **
 ** Stewart Computational Chemistry, web-site: HTTP://OpenMOPAC.net.          **
 *******************************************************************************
 **                                                                           **
 **                                MOPAC2016                                  **
 **                                                                           **
 *******************************************************************************

                              INDO CALCULATION RESULTS

 *******************************************************************************
 *  CALCULATION DONE:                                Wed Oct 11 10:33:01 2023  *
 *  INDO       - The INDO Hamiltonian to be used
 *  CIS        - C.I. USES 1 ELECTRON EXCITATIONS ONLY
 *  T=         - A TIME OF 172800.0 SECONDS REQUESTED
 *  DUMP=N     - RESTART FILE WRITTEN EVERY 7200.0 SECONDS REQUESTED
 *  RELSCF     - DEFAULT SCF CRITERION MULTIPLIED BY 0.0001
 *              (DEFAULT SCF CRITERION = 0.00010)
 *******************************************************************************
INDO CIS RELSCF=0.0001
 carbon dioxide

   ATOM   CHEMICAL          X               Y               Z
  NUMBER   SYMBOL      (ANGSTROMS)     (ANGSTROMS)     (ANGSTROMS)
 
     1       O          0.00000000      0.00330000      0.00000000   
     2       C          0.00000000     -0.00880000      1.17965000   
     3       O          0.00000000      0.00330000      2.35929000   
 


          CARTESIAN COORDINATES 

    NO.       ATOM           X           Y           Z

     1         O          0.0000      0.0033      0.0000
     2         C          0.0000     -0.0088      1.1797
     3         O          0.0000      0.0033      2.3593

           Empirical Formula: C O2  =     3 atoms



      MOLECULAR POINT GROUP   :   D2h 


      RHF CALCULATION, NO. OF DOUBLY OCCUPIED LEVELS = 8

 WARNING: INDO only performs single-point calculations
  SCF CRITERION =    0.1000E-07

 Summary of symmetry occupancy in each shell:

 SHELL     
    1    8
    v    4
 TOTAL  12




    ROOT NO.    1           2           3           4           5           6

           -43.90944   -42.42495   -19.43749   -17.23987   -17.00859   -17.00854
  
  
  S  O   1   0.53207     0.57046     0.41721    -0.34471    -0.00018    -0.00000
 PX  O   1   0.00000     0.00000    -0.00000     0.00000    -0.00000     0.57447
 PY  O   1  -0.00113    -0.00261     0.00391    -0.00828     0.57440     0.00000
 PZ  O   1   0.19392     0.17191    -0.48408     0.55784     0.00779     0.00000
  
  S  C   2   0.59871     0.00005    -0.42798     0.00001    -0.00774    -0.00000
 PX  C   2   0.00000    -0.00000    -0.00000     0.00000    -0.00000     0.58305
 PY  C   2   0.00532     0.00000    -0.00020     0.00000     0.58304     0.00000
 PZ  C   2   0.00004    -0.53865    -0.00000    -0.37396     0.00000     0.00000
  
  S  O   3   0.53216    -0.57037     0.41721     0.34470    -0.00018    -0.00000
 PX  O   3  -0.00000    -0.00000    -0.00000     0.00000    -0.00000     0.57449
 PY  O   3  -0.00113     0.00261     0.00391     0.00828     0.57442     0.00000
 PZ  O   3  -0.19395     0.17187     0.48409     0.55784    -0.00779    -0.00000




    ROOT NO.    7           8           9          10          11          12

           -12.64438   -12.64405    -0.05042    -0.04717     3.46502    14.18452
  
  
  S  O   1   0.00000    -0.00018     0.00425    -0.00000    -0.20681     0.23622
 PX  O   1   0.70712     0.00000    -0.00000    -0.41228    -0.00000    -0.00000
 PY  O   1  -0.00000     0.70704    -0.41234     0.00000    -0.00399    -0.00524
 PZ  O   1  -0.00000     0.01012     0.01035    -0.00000    -0.47738     0.39896
  
  S  C   2   0.00000    -0.00000    -0.02304     0.00000     0.67660     0.00000
 PX  C   2   0.00001    -0.00000     0.00000     0.81244    -0.00000     0.00000
 PY  C   2  -0.00000     0.00001     0.81189    -0.00000     0.02948     0.00000
 PZ  C   2   0.00000    -0.00077    -0.00000     0.00000    -0.00000     0.75499
  
  S  O   3  -0.00000     0.00018     0.00425    -0.00000    -0.20681    -0.23623
 PX  O   3  -0.70710    -0.00000    -0.00000    -0.41228     0.00000    -0.00000
 PY  O   3   0.00000    -0.70702    -0.41234     0.00000    -0.00399     0.00524
 PZ  O   3  -0.00000     0.01012    -0.01035     0.00000     0.47737     0.39895


 Reference determinate nber   1 is ALPHA 1 -   8
 SINGLE excitations FROM orbs   1 to   8 INTO orbs   9 to  12
 

 CI excitations=   33:        = 33
 The lowest   33 spin-adapted configurations of multiplicity=  1
     sym   eV   cm**-1 -dets- dipole oscilator X FRAG ....Excitations named from first reference determinate
                       tot  #  Debye  strength
 
   1      0.000      0.  1  1  0.0572 0.000000 0  0 (    )->(       )
   2      5.598  45155.  1  1  0.0769 0.000000 1  1 (   7)->(   9   )
   3      5.602  45181.  1  1  0.0197 0.000000 1  1 (   8)->(  10   )
   4      8.236  66424.  1  1  0.0761 0.681349 1  1 (   8)->(   9   )
   5      8.241  66469.  1  1  0.0189 0.682149 1  1 (   7)->(  10   )
   6      9.130  73639.  1  1  0.1260 0.000000 1  1 (   7)->(  11   )
   7      9.131  73651.  1  1  0.1268 0.000429 1  1 (   8)->(  11   )
   8      9.408  75884.  1  1  0.0571 0.000036 1  1 (   6)->(   9   )
   9      9.411  75905.  1  1  0.0597 0.000014 1  1 (   5)->(  10   )
  10     10.197  82244.  1  1  0.0871 0.000400 1  1 (   4)->(   9   )
  11     10.198  82253.  1  1  0.0086 0.000000 1  1 (   4)->(  10   )
  12     12.140  97916.  1  1  0.0361 0.000376 1  1 (   5)->(   9   )
  13     12.144  97948.  1  1  0.0386 0.000070 1  1 (   6)->(  10   )
  14     12.810 103323.  1  1  0.0771 0.174413 1  1 (   3)->(   9   )
  15     12.813 103343.  1  1  0.0186 0.174432 1  1 (   3)->(  10   )
  16     13.634 109963.  1  1  0.1457 0.026626 1  1 (   6)->(  11   )
  17     13.635 109976.  1  1  0.1668 0.026506 1  1 (   5)->(  11   )
  18     15.118 121932.  1  1  0.1157 0.370218 1  1 (   4)->(  11   )
  19     16.956 136759.  1  1  0.1257 0.000051 1  1 (   3)->(  11   )
  20     20.048 161701.  1  1  0.0169 0.044128 1  1 (   8)->(  12   )
  21     20.049 161704.  1  1  0.0161 0.044131 1  1 (   7)->(  12   )
  22     23.878 192589.  1  1  0.0359 0.000000 1  1 (   6)->(  12   )
  23     23.878 192590.  1  1  0.0569 0.000012 1  1 (   5)->(  12   )
  24     25.440 205185.  1  1  0.0059 0.000049 1  1 (   4)->(  12   )
  25     27.259 219862.  1  1  0.0159 0.053871 1  1 (   3)->(  12   )
  26     35.534 286605.  1  1  0.0504 0.000029 1  1 (   2)->(   9   )
  27     35.536 286615.  1  1  0.0454 0.000000 1  1 (   2)->(  10   )
  28     37.571 303031.  1  1  0.0665 0.043348 1  1 (   1)->(   9   )
  29     37.574 303053.  1  1  0.0292 0.043482 1  1 (   1)->(  10   )
  30     40.967 330420.  1  1  0.1524 0.063170 1  1 (   2)->(  11   )
  31     42.520 342947.  1  1  0.1363 0.000108 1  1 (   1)->(  11   )
  32     51.769 417548.  1  1  0.0426 0.000057 1  1 (   2)->(  12   )
  33     53.015 427596.  1  1  0.0265 0.080824 1  1 (   1)->(  12   )

 Depression of ground-state after CI=          0. cm**-1 Energy= -1282.4086567 eV
 Dipole moment= -0.000000 -0.057245  0.000082 tot=  0.057245 Debyes


  CI trans.  energy frequency wavelength oscillator ---------polarization---------    dipole   ------components----- 
 st.  symm.    eV      cm-1       nm      strength       x          y         z       moment     x       y       z 

   2      5.4592921    44032.    227.11  0.000000                                   0.030062  -0.000   0.030  -0.000
   3      5.7407904    46303.    215.97  0.000000  -0.000000  -0.000090   1.000000  0.033261   0.000   0.033  -0.000
   4      5.7408018    46303.    215.97  0.000000                                   0.032577  -0.000   0.033  -0.000
   5      9.0500585    72994.    137.00  0.027450  -0.000000  -0.000004   1.000000  0.178064   0.000   0.178  -0.000
   6      9.0627067    73096.    136.81  0.000000                                   0.131391  -0.000  -0.131  -0.000
   7      9.1951581    74164.    134.84  0.000000   1.000000  -0.000000   0.000000  0.008103  -0.000  -0.008   0.000
   8      9.4123857    75916.    131.72  0.855089   0.000000  -0.000000  -1.000000  0.258560  -0.000  -0.259  -0.000
   9      9.6240433    77623.    128.83  0.000029   0.000003  -1.000000   0.000057  0.006942  -0.000  -0.007   0.000
  10      9.6240488    77623.    128.83  0.000029  -1.000000  -0.000003   0.000000  0.007322   0.000  -0.007   0.000
  11     10.1788133    82098.    121.81  0.000000                                   0.009912  -0.000  -0.010   0.000
  12     10.1821014    82124.    121.77  0.008128  -0.000000  -0.000008   1.000000  0.019659  -0.000   0.020   0.000
  13     12.7109621   102521.     97.54  0.111896   0.000000  -1.000000   0.000017  0.464837  -0.000   0.465   0.000
  14     12.7323806   102694.     97.38  0.126856  -1.000000  -0.000000   0.000000  0.031477  -0.000  -0.031   0.000
  15     12.9475525   104429.     95.76  0.016662   0.000000  -1.000000  -0.000137  0.409759   0.000  -0.410   0.000
  16     13.5439063   109239.     91.54  0.064309  -1.000000  -0.000000  -0.000000  0.118037   0.000  -0.118   0.000
  17     13.5441161   109241.     91.54  0.062893   0.000000  -1.000000   0.000005  0.167236   0.000  -0.167   0.000
  18     15.9887394   128958.     77.54  1.362234  -0.000000  -0.000000  -1.000000  0.070487  -0.000  -0.070  -0.000
  19     17.7979839   143551.     69.66  0.000026   0.000000   0.999997   0.002290  0.095284   0.000  -0.095   0.000
  20     20.1904238   162847.     61.41  0.063164   0.000000  -1.000000   0.000001  0.018895   0.000  -0.019  -0.000
  21     20.1907417   162850.     61.41  0.063180  -1.000000  -0.000000   0.000000  0.017506  -0.000  -0.018  -0.000
  22     23.9293514   193004.     51.81  0.000000                                   0.035938   0.000  -0.036   0.000
  23     23.9294237   193004.     51.81  0.000016  -0.000000   0.000965   1.000000  0.056244  -0.000  -0.056   0.000
  24     25.6560842   206931.     48.33  0.000125  -0.000000  -1.000000   0.000574  0.005962   0.000  -0.006   0.000
  25     27.2572803   219845.     45.49  0.120982   0.000000   0.000000   1.000000  0.015315  -0.000  -0.015   0.000
  26     35.5689796   286884.     34.86  0.000044   0.000000  -0.001899   0.999998  0.013296  -0.000   0.013  -0.000
  27     35.5708582   286899.     34.86  0.000000                                   0.044051   0.000  -0.044  -0.000
  28     37.5992527   303259.     32.98  0.040784   0.000000   1.000000   0.000001  0.039787   0.000   0.040   0.001
  29     37.6020702   303282.     32.97  0.040870   1.000000  -0.000000   0.000000  0.029827  -0.000  -0.030   0.001
  30     41.0520819   331108.     30.20  0.203812  -0.000000   0.000001   1.000000  0.114305   0.000  -0.114  -0.001
  31     42.5614198   343282.     29.13  0.000048  -0.000000   0.999989  -0.004710  0.107972  -0.000  -0.108   0.001
  32     52.4015678   422648.     23.66  0.000105   0.000000   0.999974  -0.007240  0.045650  -0.000  -0.046  -0.001
  33     53.3943264   430655.     23.22  0.312009   0.000000  -0.000002  -1.000000  0.028834   0.000  -0.029   0.001
 
 Polarizability (au  ) xx=    2.93 xy=   -0.00 yy=    2.93 xz=   -0.00 yz=   -0.00 zz=   35.07
 Polarizability (A**3) xx=    0.43 xy=   -0.00 yy=    0.43 xz=   -0.00 yz=   -0.00 zz=    5.20
 
 
 Major CI contributions to CI states
 
State    1  0.0000     CI coeff  CI percent
    Config       1   1.00000000  1.00000000
 Total coeff printed             1.00000000
  
State    2  5.4593     CI coeff  CI percent
    Config       2   0.71122040  0.50583446
    Config       3  -0.70296778  0.49416371
 Total coeff printed             0.99999816
  
State    3  5.7408     CI coeff  CI percent
    Config       4   0.70759365  0.50068877
    Config       5  -0.70661510  0.49930490
 Total coeff printed             0.99999366
  
State    4  5.7408     CI coeff  CI percent
    Config       2   0.70296427  0.49415876
    Config       3   0.71122079  0.50583502
 Total coeff printed             0.99999378
  
State    5  9.0501     CI coeff  CI percent
    Config       4   0.12484514  0.01558631
    Config       5   0.12804767  0.01639621
    Config       7  -0.97946914  0.95935980
    Config      18  -0.06330780  0.00400788
    Config      23   0.06414230  0.00411423
 Total coeff printed             0.99946443
  
State    6  9.0627     CI coeff  CI percent
    Config       6  -0.99754249  0.99509101
    Config      22   0.06507637  0.00423493
 Total coeff printed             0.99932595
  
State    7  9.1952     CI coeff  CI percent
    Config       8  -0.70941659  0.50327190
    Config       9   0.70477826  0.49671239
 Total coeff printed             0.99998429
  
State    8  9.4124     CI coeff  CI percent
    Config       4  -0.63521656  0.40350008
    Config       5  -0.63562273  0.40401625
    Config       7  -0.18794880  0.03532475
    Config      10  -0.08920906  0.00795826
    Config      18   0.37618985  0.14151880
    Config      25   0.06420262  0.00412198
    Config      30   0.04880993  0.00238241
 Total coeff printed             0.99882253
  
State    9  9.6240     CI coeff  CI percent
    Config      12   0.70742074  0.50044410
    Config      13  -0.70677945  0.49953719
 Total coeff printed             0.99998129
  
State   10  9.6240     CI coeff  CI percent
    Config       8   0.70476544  0.49669432
    Config       9   0.70942730  0.50328710
 Total coeff printed             0.99998142
  
State   11 10.1788     CI coeff  CI percent
    Config      11   0.99934625  0.99869292
 Total coeff printed             0.99869292
  
State   12 10.1821     CI coeff  CI percent
    Config       4   0.05167187  0.00266998
    Config       5   0.05129169  0.00263084
    Config      10  -0.99544468  0.99091012
    Config      18  -0.04614857  0.00212969
 Total coeff printed             0.99834063
  
State   13 12.7110     CI coeff  CI percent
    Config      12  -0.18069515  0.03265074
    Config      13  -0.18265790  0.03336391
    Config      14   0.91266299  0.83295373
    Config      17   0.29207906  0.08531018
    Config      19  -0.11229473  0.01261011
    Config      24  -0.04141237  0.00171498
 Total coeff printed             0.99860364
  
State   14 12.7324     CI coeff  CI percent
    Config      15   0.95363589  0.90942140
    Config      16   0.29938091  0.08962893
 Total coeff printed             0.99905033
  
State   15 12.9476     CI coeff  CI percent
    Config      12   0.59835135  0.35802434
    Config      13   0.59824404  0.35789593
    Config      14   0.28120227  0.07907472
    Config      17   0.05242530  0.00274841
    Config      19   0.42039159  0.17672909
    Config      24   0.14232978  0.02025777
    Config      31  -0.05752698  0.00330935
    Config      32   0.04415336  0.00194952
 Total coeff printed             0.99998912
  
State   16 13.5439     CI coeff  CI percent
    Config      15   0.29987602  0.08992563
    Config      16  -0.94227991  0.88789142
    Config      21   0.14677561  0.02154308
 Total coeff printed             0.99936013
  
State   17 13.5441     CI coeff  CI percent
    Config      14   0.29536287  0.08723922
    Config      17  -0.94299538  0.88924028
    Config      20   0.14663975  0.02150322
 Total coeff printed             0.99798272
  
State   18 15.9887     CI coeff  CI percent
    Config       4  -0.26672250  0.07114089
    Config       5  -0.26690187  0.07123661
    Config      18  -0.92154745  0.84924970
    Config      30   0.06488692  0.00421031
    Config      33  -0.05439313  0.00295861
 Total coeff printed             0.99879613
  
State   19 17.7980     CI coeff  CI percent
    Config      12  -0.29506536  0.08706357
    Config      13  -0.29530513  0.08720512
    Config      19   0.89828929  0.80692364
    Config      24  -0.10495167  0.01101485
    Config      31   0.05981413  0.00357773
    Config      32  -0.06253638  0.00391080
 Total coeff printed             0.99969571
  
State   20 20.1904     CI coeff  CI percent
    Config      17  -0.14729598  0.02169611
    Config      20  -0.98874864  0.97762387
 Total coeff printed             0.99931998
  
State   21 20.1907     CI coeff  CI percent
    Config      16  -0.14729071  0.02169455
    Config      21  -0.98875198  0.97763047
 Total coeff printed             0.99932503
  
State   22 23.9294     CI coeff  CI percent
    Config       6   0.06549535  0.00428964
    Config      22   0.99736770  0.99474232
 Total coeff printed             0.99903196
  
State   23 23.9294     CI coeff  CI percent
    Config       7  -0.06548837  0.00428873
    Config      23  -0.99736769  0.99474230
 Total coeff printed             0.99903103
  
State   24 25.6561     CI coeff  CI percent
    Config      12   0.11898968  0.01415854
    Config      13   0.11905259  0.01417352
    Config      24  -0.97952858  0.95947625
    Config      31  -0.09503148  0.00903098
    Config      32   0.04939669  0.00244003
 Total coeff printed             0.99927933
  
State   25 27.2573     CI coeff  CI percent
    Config       4   0.04608838  0.00212414
    Config       5   0.04610347  0.00212553
    Config      25   0.99447165  0.98897386
    Config      30  -0.07998072  0.00639692
 Total coeff printed             0.99962044
  
State   26 35.5690     CI coeff  CI percent
    Config      26  -0.99897519  0.99795142
 Total coeff printed             0.99795142
  
State   27 35.5709     CI coeff  CI percent
    Config      27   0.99904923  0.99809936
 Total coeff printed             0.99809936
  
State   28 37.5993     CI coeff  CI percent
    Config      28   0.99936546  0.99873132
 Total coeff printed             0.99873132
  
State   29 37.6021     CI coeff  CI percent
    Config      29   0.99939303  0.99878643
 Total coeff printed             0.99878643
  
State   30 41.0521     CI coeff  CI percent
    Config       4   0.04866083  0.00236788
    Config       5   0.04868400  0.00237013
    Config      25   0.07233159  0.00523186
    Config      30   0.98567315  0.97155156
    Config      33   0.13063507  0.01706552
 Total coeff printed             0.99858695
  
State   31 42.5614     CI coeff  CI percent
    Config      12   0.05624624  0.00316364
    Config      13   0.05629632  0.00316928
    Config      24  -0.07091252  0.00502859
    Config      31   0.97604028  0.95265463
    Config      32   0.18816981  0.03540788
 Total coeff printed             0.99942401
  
State   32 52.4016     CI coeff  CI percent
    Config      12  -0.06508148  0.00423560
    Config      13  -0.06511132  0.00423948
    Config      19   0.04277359  0.00182958
    Config      24   0.04945058  0.00244536
    Config      31  -0.17637581  0.03110843
    Config      32   0.97781777  0.95612760
 Total coeff printed             0.99998604
  
State   33 53.3943     CI coeff  CI percent
    Config       4  -0.04378583  0.00191720
    Config       5  -0.04380145  0.00191857
    Config      18  -0.04248896  0.00180531
    Config      30  -0.12336450  0.01521880
    Config      33   0.98919436  0.97850549
 Total coeff printed             0.99936537
  

 -------------------------------------------------------------------------------
 INDO CIS RELSCF=0.0001
 carbon dioxide



     NO PARAMETERS MARKED FOR OPTIMIZATION, SO 1SCF WAS USED  
     SCF FIELD WAS ACHIEVED                                   


                              INDO CALCULATION
                                                       MOPAC2016 (Version: 20.173L)
                                                       Wed Oct 11 10:33:01 2023




          FINAL HEAT OF FORMATION =     -18074.25025 KCAL/MOL =  -75622.66304 KJ/MOL


          TOTAL ENERGY            =       -796.35026 EV
          ELECTRONIC ENERGY       =      -1282.40866 EV  POINT GROUP:     D2h 
          CORE-CORE REPULSION     =        486.05840 EV
          COSMO AREA              =         65.68 SQUARE ANGSTROMS
          COSMO VOLUME            =         47.36 CUBIC ANGSTROMS

          IONIZATION POTENTIAL    =         12.644053 EV
          HOMO LUMO ENERGIES (EV) =        -12.644 -0.050
          NO. OF FILLED LEVELS    =          8
          MOLECULAR WEIGHT        =         44.0098

          MOLECULAR DIMENSIONS (Angstroms)

            Atom       Atom       Distance
            O     3    O     1     2.35929
            C     2    O     1     0.01210
            O     1    C     2     0.00000


          SCF CALCULATIONS        =          1
 
          WALL-CLOCK TIME         =          0.051 SECONDS
          COMPUTATION TIME        =          0.024 SECONDS




   ATOM   CHEMICAL          X               Y               Z
  NUMBER   SYMBOL      (ANGSTROMS)     (ANGSTROMS)     (ANGSTROMS)
 
     1       O          0.00000000      0.00330000      0.00000000   
     2       C          0.00000000     -0.00880000      1.17965000   
     3       O          0.00000000      0.00330000      2.35929000   

                             CARTESIAN COORDINATES

   1    O        0.000000000     0.003300000     0.000000000
   2    C        0.000000000    -0.008800000     1.179650000
   3    O        0.000000000     0.003300000     2.359290000


           Empirical Formula: C O2  =     3 atoms



      MOLECULAR POINT GROUP   :   D2h 


                  EIGENVALUES  
 -43.90944 -42.42495 -19.43749 -17.23987 -17.00859 -17.00854 -12.64438 -12.64405
  -0.05042  -0.04717   3.46502  14.18452


              NET ATOMIC CHARGES AND DIPOLE CONTRIBUTIONS

  ATOM NO.   TYPE          CHARGE      No. of ELECS.   s-Pop       p-Pop       
    1          O          -0.348427        6.3484     1.80282     4.54561
    2          C           0.696843        3.3032     1.08336     2.21979
    3          O          -0.348416        6.3484     1.80282     4.54560
 DIPOLE           X         Y         Z       TOTAL
 POINT-CHG.     0.000    -0.040     0.000     0.040
 HYBRID        -0.000    -0.017     0.000     0.017
 SUM           -0.000    -0.057     0.000     0.057


          ATOMIC ORBITAL ELECTRON POPULATIONS

     Atom    s        px        py        pz   
    1  O   1.80282   1.66006   1.65987   1.22568
    2  C   1.08336   0.67989   0.67992   0.85998
    3  O   1.80282   1.66005   1.65986   1.22569

 **********************
 *                    *
 * JOB ENDED NORMALLY *
 *                    *
 **********************



 TOTAL JOB TIME:             0.09 SECONDS

 == MOPAC DONE ==
