 *******************************************************************************
 ** Site#:    0         For non-commercial use only    Version 20.173L 64BITS **
 *******************************************************************************
 ** Cite this program as: MOPAC2016, Version: 20.173L, James J. P. Stewart,   **
 ** Stewart Computational Chemistry, web-site: HTTP://OpenMOPAC.net.          **
 *******************************************************************************
 **                                                                           **
 **                                MOPAC2016                                  **
 **                                                                           **
 *******************************************************************************

                              INDO CALCULATION RESULTS

 *******************************************************************************
 *  CALCULATION DONE:                                Wed Oct 11 10:33:14 2023  *
 *  INDO       - The INDO Hamiltonian to be used
 *  CIS        - C.I. USES 1 ELECTRON EXCITATIONS ONLY
 *  T=         - A TIME OF 172800.0 SECONDS REQUESTED
 *  DUMP=N     - RESTART FILE WRITTEN EVERY 7200.0 SECONDS REQUESTED
 *  RELSCF     - DEFAULT SCF CRITERION MULTIPLIED BY 0.0001
 *              (DEFAULT SCF CRITERION = 0.00010)
 *******************************************************************************
INDO CIS RELSCF=0.0001
 carbon dioxide

   ATOM   CHEMICAL          X               Y               Z
  NUMBER   SYMBOL      (ANGSTROMS)     (ANGSTROMS)     (ANGSTROMS)
 
     1       O          0.00000000      0.00000000     -0.00710000   
     2       C          0.00000000      0.00000000      1.17965000   
     3       O          0.00000000      0.00000000      2.36639000   
 


          CARTESIAN COORDINATES 

    NO.       ATOM           X           Y           Z

     1         O          0.0000      0.0000     -0.0071
     2         C          0.0000      0.0000      1.1797
     3         O          0.0000      0.0000      2.3664

           Empirical Formula: C O2  =     3 atoms



      MOLECULAR POINT GROUP   :   D*h 


      RHF CALCULATION, NO. OF DOUBLY OCCUPIED LEVELS = 8

 WARNING: INDO only performs single-point calculations
  SCF CRITERION =    0.1000E-07

 Summary of symmetry occupancy in each shell:

 SHELL     
    1    8
    v    4
 TOTAL  12




    ROOT NO.    1           2           3           4           5           6

           -43.72989   -42.35328   -19.46036   -17.30274   -16.93898   -16.93898
  
  
  S  O   1   0.53274     0.57054     0.41733    -0.34571     0.00000    -0.00000
 PX  O   1   0.00000    -0.00000    -0.00000     0.00000     0.57519     0.00002
 PY  O   1  -0.00000    -0.00000     0.00000    -0.00000    -0.00002     0.57519
 PZ  O   1   0.19290     0.17292    -0.48196     0.55680    -0.00000     0.00000
  
  S  C   2   0.59819     0.00005    -0.43255     0.00001    -0.00000     0.00000
 PX  C   2  -0.00000    -0.00000    -0.00000     0.00000     0.58162     0.00002
 PY  C   2  -0.00000    -0.00000     0.00000    -0.00000    -0.00002     0.58162
 PZ  C   2   0.00005    -0.53784    -0.00000    -0.37540     0.00000    -0.00000
  
  S  O   3   0.53284    -0.57045     0.41733     0.34570    -0.00000     0.00000
 PX  O   3  -0.00000    -0.00000    -0.00000     0.00000     0.57521     0.00002
 PY  O   3   0.00000     0.00000     0.00000    -0.00000    -0.00002     0.57521
 PZ  O   3  -0.19294     0.17289     0.48197     0.55680    -0.00000     0.00000




    ROOT NO.    7           8           9          10          11          12

           -12.64752   -12.64752    -0.12482    -0.12482     3.37040    14.10765
  
  
  S  O   1  -0.00000     0.00000    -0.00000     0.00000    -0.20486     0.23456
 PX  O   1   0.70712    -0.00001    -0.41127     0.00001     0.00000     0.00000
 PY  O   1   0.00001     0.70712    -0.00001    -0.41127    -0.00000     0.00000
 PZ  O   1   0.00000    -0.00000    -0.00000     0.00000    -0.48010     0.40010
  
  S  C   2   0.00000    -0.00000     0.00000    -0.00000     0.67459     0.00000
 PX  C   2   0.00001    -0.00000     0.81346    -0.00003    -0.00000     0.00000
 PY  C   2   0.00000     0.00001     0.00003     0.81346     0.00000    -0.00000
 PZ  C   2  -0.00000     0.00000    -0.00000     0.00000    -0.00000     0.75485
  
  S  O   3   0.00000    -0.00000    -0.00000     0.00000    -0.20486    -0.23457
 PX  O   3  -0.70710     0.00001    -0.41127     0.00001     0.00000    -0.00000
 PY  O   3  -0.00001    -0.70710    -0.00001    -0.41127    -0.00000     0.00000
 PZ  O   3  -0.00000     0.00000     0.00000    -0.00000     0.48010     0.40010


 Reference determinate nber   1 is ALPHA 1 -   8
 SINGLE excitations FROM orbs   1 to   8 INTO orbs   9 to  12
 

 CI excitations=   33:        = 33
 The lowest   33 spin-adapted configurations of multiplicity=  1
     sym   eV   cm**-1 -dets- dipole oscilator X FRAG ....Excitations named from first reference determinate
                       tot  #  Debye  strength
 
   1      0.000      0.  1  1  0.0001 0.000000 0  0 (    )->(       )
   2      5.544  44717.  1  1  0.0001 0.000000 1  1 (   8)->(   9   )
   3      5.544  44717.  1  1  0.0001 0.000000 1  1 (   7)->(  10   )
   4      8.176  65947.  1  1  0.0001 0.681626 1  1 (   8)->(  10   )
   5      8.176  65947.  1  1  0.0001 0.681626 1  1 (   7)->(   9   )
   6      9.043  72936.  1  1  0.0001 0.000000 1  1 (   8)->(  11   )
   7      9.043  72936.  1  1  0.0001 0.000000 1  1 (   7)->(  11   )
   8      9.278  74830.  1  1  0.0002 0.000000 1  1 (   6)->(   9   )
   9      9.278  74830.  1  1  0.0002 0.000000 1  1 (   5)->(  10   )
  10     10.196  82238.  1  1  0.0000 0.000000 1  1 (   4)->(   9   )
  11     10.196  82238.  1  1  0.0000 0.000000 1  1 (   4)->(  10   )
  12     12.016  96917.  1  1  0.0002 0.000000 1  1 (   5)->(   9   )
  13     12.016  96917.  1  1  0.0002 0.000000 1  1 (   6)->(  10   )
  14     12.773 103022.  1  1  0.0001 0.176019 1  1 (   3)->(   9   )
  15     12.773 103022.  1  1  0.0001 0.176019 1  1 (   3)->(  10   )
  16     13.476 108690.  1  1  0.0002 0.026145 1  1 (   6)->(  11   )
  17     13.476 108690.  1  1  0.0002 0.026145 1  1 (   5)->(  11   )
  18     15.120 121947.  1  1  0.0000 0.386486 1  1 (   4)->(  11   )
  19     16.914 136422.  1  1  0.0002 0.000000 1  1 (   3)->(  11   )
  20     19.984 161184.  1  1  0.0001 0.043373 1  1 (   8)->(  12   )
  21     19.984 161184.  1  1  0.0001 0.043373 1  1 (   7)->(  12   )
  22     23.743 191502.  1  1  0.0002 0.000000 1  1 (   6)->(  12   )
  23     23.743 191502.  1  1  0.0002 0.000000 1  1 (   5)->(  12   )
  24     25.448 205252.  1  1  0.0000 0.000000 1  1 (   4)->(  12   )
  25     27.222 219564.  1  1  0.0002 0.055644 1  1 (   3)->(  12   )
  26     35.397 285496.  1  1  0.0007 0.000000 1  1 (   2)->(   9   )
  27     35.397 285496.  1  1  0.0007 0.000000 1  1 (   2)->(  10   )
  28     37.328 301070.  1  1  0.0008 0.043472 1  1 (   1)->(   9   )
  29     37.328 301070.  1  1  0.0008 0.043472 1  1 (   1)->(  10   )
  30     40.821 329247.  1  1  0.0006 0.066071 1  1 (   2)->(  11   )
  31     42.261 340856.  1  1  0.0008 0.000000 1  1 (   1)->(  11   )
  32     51.640 416505.  1  1  0.0006 0.000000 1  1 (   2)->(  12   )
  33     52.765 425578.  1  1  0.0008 0.081693 1  1 (   1)->(  12   )

 Depression of ground-state after CI=          0. cm**-1 Energy= -1280.3243683 eV
 Dipole moment=  0.000000  0.000000  0.000082 tot=  0.000082 Debyes


  CI trans.  energy frequency wavelength oscillator ---------polarization---------    dipole   ------components----- 
 st.  symm.    eV      cm-1       nm      strength       x          y         z       moment     x       y       z 

   2      5.4040675    43587.    229.43  0.000000                                   0.000093   0.000   0.000  -0.000
   3      5.6842781    45847.    218.12  0.000000                                   0.000097   0.000   0.000  -0.000
   4      5.6842861    45847.    218.12  0.000000                                   0.000097   0.000   0.000  -0.000
   5      8.9739175    72380.    138.16  0.000000                                   0.000058   0.000   0.000  -0.000
   6      8.9739175    72380.    138.16  0.000000                                   0.000058   0.000   0.000  -0.000
   7      9.0639050    73106.    136.79  0.000000                                   0.000167   0.000   0.000   0.000
   8      9.3357508    75298.    132.81  0.887277   0.000000  -0.000000  -1.000000  0.000148   0.000   0.000  -0.000
   9      9.4916159    76555.    130.62  0.000000                                   0.000171   0.000   0.000   0.000
  10      9.4916159    76555.    130.62  0.000000                                   0.000171   0.000   0.000   0.000
  11     10.1765228    82079.    121.83  0.000000                                   0.000039   0.000   0.000   0.000
  12     10.1765228    82079.    121.83  0.000000                                   0.000039   0.000   0.000   0.000
  13     12.6776424   102252.     97.80  0.118825  -1.000000   0.000009   0.000000  0.000100   0.000   0.000   0.000
  14     12.6776424   102252.     97.80  0.118825   0.000009   1.000000   0.000000  0.000100   0.000  -0.000   0.000
  15     12.8070293   103296.     96.81  0.000000                                   0.000250  -0.000   0.000   0.000
  16     13.3994304   108074.     92.53  0.073709  -0.000025  -1.000000   0.000000  0.000211   0.000   0.000   0.000
  17     13.3994304   108074.     92.53  0.073709   1.000000  -0.000025   0.000000  0.000211   0.000   0.000   0.000
  18     15.9888698   128959.     77.54  1.387741  -0.000000   0.000000  -1.000000  0.000027   0.000   0.000  -0.000
  19     17.7528807   143187.     69.84  0.000000                                   0.000198   0.000   0.000   0.000
  20     20.1278681   162343.     61.60  0.062188   0.000001  -1.000000  -0.000000  0.000134   0.000   0.000  -0.000
  21     20.1278681   162343.     61.60  0.062188  -1.000000  -0.000001   0.000000  0.000134   0.000   0.000  -0.000
  22     23.7964442   191932.     52.10  0.000000                                   0.000227   0.000   0.000   0.000
  23     23.7964442   191932.     52.10  0.000000                                   0.000227   0.000   0.000   0.000
  24     25.6621111   206979.     48.31  0.000000                                   0.000011   0.000   0.000   0.000
  25     27.2195606   219541.     45.55  0.123813   0.000000  -0.000000  -1.000000  0.000135   0.000   0.000   0.000
  26     35.4322551   285781.     34.99  0.000000                                   0.000429   0.000  -0.000  -0.000
  27     35.4322551   285781.     34.99  0.000000                                   0.000429   0.000   0.000  -0.000
  28     37.3560653   301298.     33.19  0.040804  -1.000000   0.000146  -0.000000  0.000529  -0.000   0.000   0.001
  29     37.3560653   301298.     33.19  0.040804   0.000146   1.000000   0.000000  0.000529   0.000   0.000   0.001
  30     40.9079769   329946.     30.31  0.210809  -0.000000  -0.000000   1.000000  0.000681   0.000   0.000  -0.001
  31     42.3107257   341260.     29.30  0.000000                                   0.000878   0.000  -0.000   0.001
  32     52.2706764   421593.     23.72  0.000000                                   0.000754   0.000   0.000  -0.001
  33     53.1443613   428639.     23.33  0.317081   0.000000   0.000000  -1.000000  0.000886   0.000   0.000   0.001
 
 Polarizability (au  ) xx=    2.96 xy=   -0.00 yy=    2.96 xz=   -0.00 yz=    0.00 zz=   35.57
 Polarizability (A**3) xx=    0.44 xy=   -0.00 yy=    0.44 xz=   -0.00 yz=    0.00 zz=    5.27
 
 
 Major CI contributions to CI states
 
State    1  0.0000     CI coeff  CI percent
    Config       1   1.00000000  1.00000000
 Total coeff printed             1.00000000
  
State    2  5.4041     CI coeff  CI percent
    Config       2   0.70710678  0.50000000
    Config       3  -0.70710678  0.50000000
 Total coeff printed             1.00000000
  
State    3  5.6843     CI coeff  CI percent
    Config       2  -0.49998435  0.24998435
    Config       3  -0.49998435  0.24998435
    Config       4   0.50001565  0.25001565
    Config       5  -0.50001565  0.25001565
 Total coeff printed             1.00000000
  
State    4  5.6843     CI coeff  CI percent
    Config       2   0.50001565  0.25001565
    Config       3   0.50001565  0.25001565
    Config       4   0.49998435  0.24998435
    Config       5  -0.49998435  0.24998435
 Total coeff printed             1.00000000
  
State    5  8.9739     CI coeff  CI percent
    Config       6   0.99754113  0.99508831
    Config      22  -0.06613765  0.00437419
 Total coeff printed             0.99946250
  
State    6  8.9739     CI coeff  CI percent
    Config       7   0.99754113  0.99508831
    Config      23  -0.06613765  0.00437419
 Total coeff printed             0.99946250
  
State    7  9.0639     CI coeff  CI percent
    Config       8  -0.70710678  0.50000000
    Config       9   0.70710678  0.50000000
 Total coeff printed             1.00000000
  
State    8  9.3358     CI coeff  CI percent
    Config       4  -0.65047929  0.42312330
    Config       5  -0.65047929  0.42312330
    Config      18   0.38193300  0.14587281
    Config      25   0.06537517  0.00427391
    Config      30   0.05004249  0.00250425
 Total coeff printed             0.99889758
  
State    9  9.4916     CI coeff  CI percent
    Config       8  -0.22871242  0.05230937
    Config       9  -0.22871242  0.05230937
    Config      12   0.66909688  0.44769063
    Config      13  -0.66909688  0.44769063
 Total coeff printed             1.00000000
  
State   10  9.4916     CI coeff  CI percent
    Config       8  -0.66909688  0.44769063
    Config       9  -0.66909688  0.44769063
    Config      12  -0.22871242  0.05230937
    Config      13   0.22871242  0.05230937
 Total coeff printed             1.00000000
  
State   11 10.1765     CI coeff  CI percent
    Config      10  -0.99940423  0.99880881
 Total coeff printed             0.99880881
  
State   12 10.1765     CI coeff  CI percent
    Config      11  -0.99940423  0.99880881
 Total coeff printed             0.99880881
  
State   13 12.6776     CI coeff  CI percent
    Config      14   0.93677629  0.87754982
    Config      17   0.34790672  0.12103909
 Total coeff printed             0.99858890
  
State   14 12.6776     CI coeff  CI percent
    Config      15  -0.93677629  0.87754982
    Config      16  -0.34790672  0.12103909
 Total coeff printed             0.99858890
  
State   15 12.8070     CI coeff  CI percent
    Config      12  -0.62681606  0.39289838
    Config      13  -0.62681606  0.39289838
    Config      19  -0.43194910  0.18658002
    Config      24  -0.14777693  0.02183802
    Config      31   0.06039024  0.00364698
    Config      32  -0.04624088  0.00213822
 Total coeff printed             1.00000000
  
State   16 13.3994     CI coeff  CI percent
    Config      15   0.34900728  0.12180608
    Config      16  -0.92551142  0.85657139
    Config      20   0.14513181  0.02106324
 Total coeff printed             0.99944071
  
State   17 13.3994     CI coeff  CI percent
    Config      14  -0.34900728  0.12180608
    Config      17   0.92551142  0.85657139
    Config      21  -0.14513181  0.02106324
 Total coeff printed             0.99944071
  
State   18 15.9889     CI coeff  CI percent
    Config       4  -0.26540152  0.07043797
    Config       5  -0.26540152  0.07043797
    Config      18  -0.92248217  0.85097335
    Config      30   0.06520642  0.00425188
    Config      33  -0.05467512  0.00298937
 Total coeff printed             0.99909053
  
State   19 17.7529     CI coeff  CI percent
    Config      12   0.29256364  0.08559349
    Config      13   0.29256364  0.08559349
    Config      19  -0.90013599  0.81024480
    Config      24   0.10502840  0.01103097
    Config      31  -0.06000317  0.00360038
    Config      32   0.06274459  0.00393688
 Total coeff printed             1.00000000
  
State   20 20.1279     CI coeff  CI percent
    Config      16  -0.14706917  0.02162934
    Config      20  -0.98879191  0.97770945
 Total coeff printed             0.99933879
  
State   21 20.1279     CI coeff  CI percent
    Config      17  -0.14706917  0.02162934
    Config      21  -0.98879191  0.97770945
 Total coeff printed             0.99933879
  
State   22 23.7964     CI coeff  CI percent
    Config       6   0.06654154  0.00442778
    Config      22   0.99730548  0.99461823
 Total coeff printed             0.99904600
  
State   23 23.7964     CI coeff  CI percent
    Config       7   0.06654154  0.00442778
    Config      23   0.99730548  0.99461823
 Total coeff printed             0.99904600
  
State   24 25.6621     CI coeff  CI percent
    Config      12  -0.11840869  0.01402062
    Config      13  -0.11840869  0.01402062
    Config      24   0.97947873  0.95937858
    Config      31   0.09675527  0.00936158
    Config      32  -0.04967572  0.00246768
 Total coeff printed             0.99924908
  
State   25 27.2196     CI coeff  CI percent
    Config       4  -0.04611619  0.00212670
    Config       5  -0.04611619  0.00212670
    Config      25  -0.99440693  0.98884515
    Config      30   0.08083950  0.00653503
 Total coeff printed             0.99963358
  
State   26 35.4323     CI coeff  CI percent
    Config      26   0.99904811  0.99809713
 Total coeff printed             0.99809713
  
State   27 35.4323     CI coeff  CI percent
    Config      27   0.99904811  0.99809713
 Total coeff printed             0.99809713
  
State   28 37.3561     CI coeff  CI percent
    Config      28  -0.99939405  0.99878847
 Total coeff printed             0.99878847
  
State   29 37.3561     CI coeff  CI percent
    Config      29   0.99939405  0.99878847
 Total coeff printed             0.99878847
  
State   30 40.9080     CI coeff  CI percent
    Config       4   0.04885353  0.00238667
    Config       5   0.04885353  0.00238667
    Config      25   0.07309878  0.00534343
    Config      30   0.98557446  0.97135702
    Config      33   0.13121772  0.01721809
 Total coeff printed             0.99869188
  
State   31 42.3107     CI coeff  CI percent
    Config      12  -0.05686067  0.00323314
    Config      13  -0.05686067  0.00323314
    Config      24   0.07259312  0.00526976
    Config      31  -0.97626316  0.95308975
    Config      32  -0.18605496  0.03461645
 Total coeff printed             0.99944223
  
State   32 52.2707     CI coeff  CI percent
    Config      12  -0.06522562  0.00425438
    Config      13  -0.06522562  0.00425438
    Config      19   0.04320287  0.00186649
    Config      24   0.04982642  0.00248267
    Config      31  -0.17407269  0.03030130
    Config      32   0.97818238  0.95684077
 Total coeff printed             1.00000000
  
State   33 53.1444     CI coeff  CI percent
    Config       4  -0.04387892  0.00192536
    Config       5  -0.04387892  0.00192536
    Config      18  -0.04295287  0.00184495
    Config      30  -0.12390248  0.01535183
    Config      33   0.98910286  0.97832447
 Total coeff printed             0.99937196
  

 -------------------------------------------------------------------------------
 INDO CIS RELSCF=0.0001
 carbon dioxide



     NO PARAMETERS MARKED FOR OPTIMIZATION, SO 1SCF WAS USED  
     SCF FIELD WAS ACHIEVED                                   


                              INDO CALCULATION
                                                       MOPAC2016 (Version: 20.173L)
                                                       Wed Oct 11 10:33:14 2023




          FINAL HEAT OF FORMATION =     -18060.76174 KCAL/MOL =  -75566.22712 KJ/MOL


          TOTAL ENERGY            =       -795.76534 EV
          ELECTRONIC ENERGY       =      -1280.32437 EV  POINT GROUP:     D*h 
          CORE-CORE REPULSION     =        484.55903 EV
          COSMO AREA              =         65.84 SQUARE ANGSTROMS
          COSMO VOLUME            =         47.51 CUBIC ANGSTROMS

          IONIZATION POTENTIAL    =         12.647524 EV
          HOMO LUMO ENERGIES (EV) =        -12.648 -0.125
          NO. OF FILLED LEVELS    =          8
          MOLECULAR WEIGHT        =         44.0098

          MOLECULAR DIMENSIONS (Angstroms)

            Atom       Atom       Distance
            O     3    O     1     2.37349
            O     3    O     1     0.00000
            O     1    C     2     0.00000


          SCF CALCULATIONS        =          1
 
          WALL-CLOCK TIME         =          0.043 SECONDS
          COMPUTATION TIME        =          0.013 SECONDS




   ATOM   CHEMICAL          X               Y               Z
  NUMBER   SYMBOL      (ANGSTROMS)     (ANGSTROMS)     (ANGSTROMS)
 
     1       O          0.00000000      0.00000000     -0.00710000   
     2       C          0.00000000      0.00000000      1.17965000   
     3       O          0.00000000      0.00000000      2.36639000   

                             CARTESIAN COORDINATES

   1    O        0.000000000     0.000000000    -0.007100000
   2    C        0.000000000     0.000000000     1.179650000
   3    O        0.000000000     0.000000000     2.366390000


           Empirical Formula: C O2  =     3 atoms



      MOLECULAR POINT GROUP   :   D*h 


                  EIGENVALUES  
 -43.72989 -42.35328 -19.46036 -17.30274 -16.93898 -16.93898 -12.64752 -12.64752
  -0.12482  -0.12482   3.37040  14.10765


              NET ATOMIC CHARGES AND DIPOLE CONTRIBUTIONS

  ATOM NO.   TYPE          CHARGE      No. of ELECS.   s-Pop       p-Pop       
    1          O          -0.348313        6.3483     1.80603     4.54228
    2          C           0.696615        3.3034     1.08984     2.21354
    3          O          -0.348301        6.3483     1.80603     4.54228
 DIPOLE           X         Y         Z       TOTAL
 POINT-CHG.     0.000     0.000     0.000     0.000
 HYBRID         0.000    -0.000     0.000     0.000
 SUM            0.000    -0.000     0.000     0.000


          ATOMIC ORBITAL ELECTRON POPULATIONS

     Atom    s        px        py        pz   
    1  O   1.80603   1.66172   1.66172   1.21885
    2  C   1.08984   0.67657   0.67657   0.86040
    3  O   1.80603   1.66171   1.66171   1.21886

 **********************
 *                    *
 * JOB ENDED NORMALLY *
 *                    *
 **********************



 TOTAL JOB TIME:             0.08 SECONDS

 == MOPAC DONE ==
