 *******************************************************************************
 ** Site#:    0         For non-commercial use only    Version 20.173L 64BITS **
 *******************************************************************************
 ** Cite this program as: MOPAC2016, Version: 20.173L, James J. P. Stewart,   **
 ** Stewart Computational Chemistry, web-site: HTTP://OpenMOPAC.net.          **
 *******************************************************************************
 **                                                                           **
 **                                MOPAC2016                                  **
 **                                                                           **
 *******************************************************************************

                              INDO CALCULATION RESULTS

 *******************************************************************************
 *  CALCULATION DONE:                                Wed Oct 11 10:17:50 2023  *
 *  INDO       - The INDO Hamiltonian to be used
 *  MRCI       -  Use multi-reference CI (specify ref dets using C.A.S.)
 *  MAXCI =  500 maximum CI states computed
 *  WRTCI =   50 maximum CI states printed
 *  WRTCONF =  0.1000 - Print configurations with coefficients greater than cutoff
 *  C.I.=(N,M) - 12 DOUBLY FILLED LEVELS USED IN A C.I. INVOLVING 24 M.O.'S
 * C.A.S.=(N,M)-  1 DOUBLY FILLED LEVELS USED IN A
 *             CAS REF DET GENERATION INVOLVING  2 M.O.'S
 *  T=         - A TIME OF 172800.0 SECONDS REQUESTED
 *  DUMP=N     - RESTART FILE WRITTEN EVERY 7200.0 SECONDS REQUESTED
 *******************************************************************************
INDO MRCI C.I.=(24,12) C.A.S.=(2,1) MAXCI=500 WRTCI=50 WRTCONF=0.1
 all-trans-octatetraene

   ATOM   CHEMICAL          X               Y               Z
  NUMBER   SYMBOL      (ANGSTROMS)     (ANGSTROMS)     (ANGSTROMS)
 
     1       C          0.13642800      4.31261200      0.00000000   
     2       C          0.65084500      3.07095700      0.00000000   
     3       C         -0.13642800      1.85596900      0.00000000   
     4       C          0.38926300      0.60631000      0.00000000   
     5       C         -0.38926300     -0.60631000      0.00000000   
     6       C          0.13642800     -1.85596900      0.00000000   
     7       C         -0.65084500     -3.07095700      0.00000000   
     8       C         -0.13642800     -4.31261200      0.00000000   
     9       H          0.77042500      5.19381900      0.00000000   
    10       H         -0.93776100      4.48341300      0.00000000   
    11       H          1.73423700      2.94537900      0.00000000   
    12       H         -1.22106200      1.97279000      0.00000000   
    13       H          1.47457700      0.49428800      0.00000000   
    14       H         -1.47457700     -0.49428800      0.00000000   
    15       H          1.22106200     -1.97279000      0.00000000   
    16       H         -1.73423700     -2.94537900      0.00000000   
    17       H          0.93776100     -4.48341300      0.00000000   
    18       H         -0.77042500     -5.19381900      0.00000000   
 


          CARTESIAN COORDINATES 

    NO.       ATOM           X           Y           Z

     1         C          0.1364      4.3126      0.0000
     2         C          0.6508      3.0710      0.0000
     3         C         -0.1364      1.8560      0.0000
     4         C          0.3893      0.6063      0.0000
     5         C         -0.3893     -0.6063      0.0000
     6         C          0.1364     -1.8560      0.0000
     7         C         -0.6508     -3.0710      0.0000
     8         C         -0.1364     -4.3126      0.0000
     9         H          0.7704      5.1938      0.0000
    10         H         -0.9378      4.4834      0.0000
    11         H          1.7342      2.9454      0.0000
    12         H         -1.2211      1.9728      0.0000
    13         H          1.4746      0.4943      0.0000
    14         H         -1.4746     -0.4943      0.0000
    15         H          1.2211     -1.9728      0.0000
    16         H         -1.7342     -2.9454      0.0000
    17         H          0.9378     -4.4834      0.0000
    18         H         -0.7704     -5.1938      0.0000

           Empirical Formula: C8 H10  =    18 atoms



      MOLECULAR POINT GROUP   :   C2h 


      RHF CALCULATION, NO. OF DOUBLY OCCUPIED LEVELS = 21

 WARNING: INDO only performs single-point calculations

 Summary of symmetry occupancy in each shell:

 SHELL     
    1   21
    v   21
 TOTAL  42




    ROOT NO.    1           2           3           4           5           6

           -40.18409   -38.11453   -35.02602   -31.26250   -26.60496   -24.72015
  
  
  S  C   1   0.15648     0.28333     0.35735    -0.36108     0.32421    -0.08539
 PX  C   1   0.01124     0.02285     0.03360    -0.03737     0.01539     0.11218
 PY  C   1  -0.06793    -0.10827    -0.09771     0.02574     0.11501    -0.02805
 PZ  C   1   0.00000     0.00000     0.00000    -0.00000    -0.00000    -0.00000
  
  S  C   2   0.27046     0.40049     0.32959    -0.11198    -0.14956     0.16488
 PX  C   2  -0.04418    -0.06608    -0.05212     0.00937     0.02481     0.17555
 PY  C   2  -0.04808    -0.01547     0.11130    -0.24420     0.26965    -0.04584
 PZ  C   2  -0.00000    -0.00000    -0.00000     0.00000    -0.00000     0.00000
  
  S  C   3   0.37049     0.35027    -0.01626     0.30834    -0.24158    -0.17784
 PX  C   3   0.04964     0.06133     0.01718     0.05238    -0.08997     0.25358
 PY  C   3  -0.04763     0.06072     0.21120    -0.14321    -0.16550     0.03418
 PZ  C   3  -0.00000    -0.00000    -0.00000     0.00000    -0.00000     0.00000
  
  S  C   4   0.41936     0.14747    -0.32819     0.23600     0.19101     0.15320
 PX  C   4  -0.06039    -0.00978     0.06716    -0.02569    -0.07460     0.28623
 PY  C   4  -0.00001     0.13938     0.09466     0.21568    -0.24246    -0.06154
 PZ  C   4  -0.00000    -0.00000    -0.00000     0.00000     0.00000    -0.00000
  
  S  C   5   0.41936    -0.14747    -0.32819    -0.23600     0.19101    -0.15320
 PX  C   5   0.06039    -0.00978    -0.06716    -0.02569     0.07460     0.28623
 PY  C   5   0.00001     0.13938    -0.09466     0.21568     0.24246    -0.06154
 PZ  C   5  -0.00000    -0.00000    -0.00000     0.00000    -0.00000    -0.00000
  
  S  C   6   0.37049    -0.35027    -0.01626    -0.30834    -0.24158     0.17784
 PX  C   6  -0.04964     0.06133    -0.01718     0.05238     0.08997     0.25358
 PY  C   6   0.04763     0.06072    -0.21120    -0.14321     0.16550     0.03418
 PZ  C   6   0.00000    -0.00000    -0.00000     0.00000    -0.00000    -0.00000
  
  S  C   7   0.27046    -0.40049     0.32959     0.11198    -0.14956    -0.16488
 PX  C   7   0.04418    -0.06608     0.05212     0.00937    -0.02481     0.17555
 PY  C   7   0.04808    -0.01547    -0.11130    -0.24420    -0.26965    -0.04584
 PZ  C   7  -0.00000    -0.00000     0.00000     0.00000    -0.00000     0.00000
  
  S  C   8   0.15648    -0.28333     0.35735     0.36108     0.32421     0.08539
 PX  C   8  -0.01124     0.02285    -0.03360    -0.03737    -0.01539     0.11218
 PY  C   8   0.06793    -0.10827     0.09771     0.02574    -0.11501    -0.02805
 PZ  C   8  -0.00000    -0.00000     0.00000     0.00000    -0.00000     0.00000
  
  S  H   9   0.04984     0.09737     0.14133    -0.17772     0.22426    -0.01488
  
  S  H  10   0.06514     0.11652     0.14587    -0.15114     0.16175    -0.12539
  
  S  H  11   0.11160     0.15870     0.12126    -0.03130    -0.07732     0.21167
  
  S  H  12   0.15155     0.13949    -0.00447     0.10712    -0.07022    -0.26653
  
  S  H  13   0.17234     0.05808    -0.12480     0.08496     0.06068     0.28488
  
  S  H  14   0.17234    -0.05808    -0.12480    -0.08496     0.06068    -0.28488
  
  S  H  15   0.15155    -0.13949    -0.00447    -0.10712    -0.07022     0.26653
  
  S  H  16   0.11160    -0.15870     0.12126     0.03130    -0.07732    -0.21167
  
  S  H  17   0.06514    -0.11652     0.14587     0.15114     0.16175     0.12539
  
  S  H  18   0.04984    -0.09737     0.14133     0.17772     0.22426     0.01488




    ROOT NO.    7           8           9          10          11          12

           -22.86493   -22.65749   -20.09911   -18.94038   -17.37719   -15.84646
  
  
  S  C   1  -0.07562    -0.23705    -0.02480     0.10068     0.01151     0.01363
 PX  C   1   0.21116     0.04319     0.27993    -0.13557    -0.27147     0.21896
 PY  C   1  -0.01551    -0.25599     0.07584     0.32630    -0.20942    -0.29539
 PZ  C   1  -0.00000     0.00000    -0.00000    -0.00000    -0.00000     0.00000
  
  S  C   2   0.19185     0.24821     0.06141    -0.14065     0.05971    -0.02325
 PX  C   2   0.28382    -0.02994     0.29170     0.03471    -0.18850    -0.12255
 PY  C   2   0.02696    -0.07705     0.11388    -0.23179    -0.02433     0.36839
 PZ  C   2   0.00000     0.00000     0.00000     0.00000     0.00000     0.00000
  
  S  C   3  -0.21294     0.01821    -0.01737     0.06872    -0.16682    -0.01819
 PX  C   3   0.22498    -0.03711    -0.03020     0.22974     0.19393    -0.20748
 PY  C   3  -0.07009     0.28554    -0.24603    -0.07950     0.15061    -0.11756
 PZ  C   3   0.00000     0.00000     0.00000     0.00000     0.00000     0.00000
  
  S  C   4   0.09379    -0.25985    -0.04828    -0.01801     0.10521     0.14836
 PX  C   4   0.09639    -0.07300    -0.25213     0.16565     0.16535     0.11645
 PY  C   4  -0.01308    -0.13446     0.13799     0.31780    -0.12959    -0.01640
 PZ  C   4  -0.00000     0.00000    -0.00000    -0.00000    -0.00000     0.00000
  
  S  C   5   0.09379     0.25985     0.04828    -0.01801     0.10521    -0.14836
 PX  C   5  -0.09639    -0.07300    -0.25213    -0.16565    -0.16535     0.11645
 PY  C   5   0.01308    -0.13446     0.13799    -0.31780     0.12959    -0.01640
 PZ  C   5   0.00000    -0.00000     0.00000     0.00000     0.00000     0.00000
  
  S  C   6  -0.21294    -0.01821     0.01737     0.06872    -0.16682     0.01819
 PX  C   6  -0.22498    -0.03711    -0.03020    -0.22974    -0.19393    -0.20748
 PY  C   6   0.07009     0.28554    -0.24603     0.07950    -0.15061    -0.11756
 PZ  C   6   0.00000     0.00000     0.00000     0.00000     0.00000     0.00000
  
  S  C   7   0.19185    -0.24821    -0.06141    -0.14065     0.05971     0.02325
 PX  C   7  -0.28382    -0.02994     0.29170    -0.03471     0.18850    -0.12255
 PY  C   7  -0.02696    -0.07705     0.11388     0.23179     0.02433     0.36839
 PZ  C   7  -0.00000     0.00000    -0.00000    -0.00000    -0.00000     0.00000
  
  S  C   8  -0.07562     0.23705     0.02480     0.10068     0.01151    -0.01363
 PX  C   8  -0.21116     0.04319     0.27993     0.13557     0.27147     0.21896
 PY  C   8   0.01551    -0.25599     0.07584    -0.32630     0.20942    -0.29539
 PZ  C   8  -0.00000     0.00000     0.00000     0.00000     0.00000     0.00000
  
  S  H   9   0.03714    -0.24276     0.15315     0.19073    -0.26139    -0.08345
  
  S  H  10  -0.19074    -0.17451    -0.21011     0.18640     0.19289    -0.20822
  
  S  H  11   0.29545     0.10673     0.23039    -0.02260    -0.10971    -0.14662
  
  S  H  12  -0.27154     0.05636    -0.00683    -0.13661    -0.21668     0.14109
  
  S  H  13   0.11595    -0.17276    -0.21456     0.08614     0.18649     0.16906
  
  S  H  14   0.11595     0.17276     0.21456     0.08614     0.18649    -0.16906
  
  S  H  15  -0.27154    -0.05636     0.00683    -0.13661    -0.21668    -0.14109
  
  S  H  16   0.29545    -0.10673    -0.23039    -0.02260    -0.10971     0.14662
  
  S  H  17  -0.19074     0.17451     0.21011     0.18640     0.19289     0.20822
  
  S  H  18   0.03714     0.24276    -0.15315     0.19073    -0.26139     0.08345




    ROOT NO.   13          14          15          16          17          18

           -14.72784   -13.99746   -13.28861   -13.16947   -12.70067   -12.63575
  
  
  S  C   1  -0.03726     0.05019    -0.04638    -0.03796    -0.00000     0.01991
 PX  C   1   0.21046     0.29185     0.01309    -0.23235    -0.00000    -0.13241
 PY  C   1   0.26595    -0.11549     0.15296    -0.01376    -0.00000    -0.16933
 PZ  C   1   0.00000     0.00000     0.00000    -0.00000     0.19081    -0.00000
  
  S  C   2  -0.05266    -0.05149    -0.01620    -0.02141    -0.00000    -0.06253
 PX  C   2   0.01744    -0.27255     0.08024     0.32210     0.00000     0.19479
 PY  C   2  -0.15930     0.16609    -0.12780     0.06324     0.00000     0.24843
 PZ  C   2  -0.00000     0.00000    -0.00000    -0.00000     0.29744    -0.00000
  
  S  C   3   0.09996     0.03620    -0.05657    -0.05824    -0.00000    -0.02038
 PX  C   3  -0.20330     0.04586    -0.23079    -0.29021    -0.00000    -0.17833
 PY  C   3   0.22952    -0.02447     0.25902    -0.06842    -0.00000    -0.27223
 PZ  C   3  -0.00000     0.00000    -0.00000    -0.00000     0.40939    -0.00000
  
  S  C   4  -0.06281     0.00756    -0.05100     0.01810    -0.00000    -0.05054
 PX  C   4   0.17611     0.23917     0.32475     0.09283     0.00000     0.18948
 PY  C   4  -0.16490     0.18834    -0.21316    -0.06583     0.00000     0.29060
 PZ  C   4   0.00000     0.00000    -0.00000    -0.00000     0.45554    -0.00000
  
  S  C   5   0.06281     0.00756    -0.05100    -0.01810    -0.00000    -0.05054
 PX  C   5   0.17611    -0.23917    -0.32475     0.09283    -0.00000    -0.18948
 PY  C   5  -0.16490    -0.18834     0.21316    -0.06583    -0.00000    -0.29060
 PZ  C   5  -0.00000     0.00000    -0.00000    -0.00000     0.45554    -0.00000
  
  S  C   6  -0.09996     0.03620    -0.05657     0.05824     0.00000    -0.02038
 PX  C   6  -0.20330    -0.04586     0.23079    -0.29021    -0.00000     0.17833
 PY  C   6   0.22952     0.02447    -0.25902    -0.06842     0.00000     0.27223
 PZ  C   6  -0.00000     0.00000    -0.00000    -0.00000     0.40939    -0.00000
  
  S  C   7   0.05266    -0.05149    -0.01620     0.02141    -0.00000    -0.06253
 PX  C   7   0.01744     0.27255    -0.08024     0.32210     0.00000    -0.19479
 PY  C   7  -0.15930    -0.16609     0.12780     0.06324    -0.00000    -0.24843
 PZ  C   7   0.00000     0.00000     0.00000    -0.00000     0.29744    -0.00000
  
  S  C   8   0.03726     0.05019    -0.04638     0.03796     0.00000     0.01991
 PX  C   8   0.21046    -0.29185    -0.01309    -0.23235    -0.00000     0.13241
 PY  C   8   0.26595     0.11549    -0.15296    -0.01376     0.00000     0.16933
 PZ  C   8  -0.00000    -0.00000    -0.00000    -0.00000     0.19081    -0.00000
  
  S  H   9   0.29142     0.10636     0.10595    -0.16832    -0.00000    -0.20740
  
  S  H  10  -0.16673    -0.25837    -0.00866     0.21332     0.00000     0.12880
  
  S  H  11   0.00827    -0.28737     0.09673     0.29381     0.00000     0.13513
  
  S  H  12   0.24463    -0.02606     0.22968     0.24199     0.00000     0.14895
  
  S  H  13   0.12783     0.19070     0.31746     0.10899     0.00000     0.14334
  
  S  H  14  -0.12783     0.19070     0.31746    -0.10899     0.00000     0.14334
  
  S  H  15  -0.24463    -0.02606     0.22968    -0.24199     0.00000     0.14895
  
  S  H  16  -0.00827    -0.28737     0.09673    -0.29381    -0.00000     0.13513
  
  S  H  17   0.16673    -0.25837    -0.00866    -0.21332    -0.00000     0.12880
  
  S  H  18  -0.29142     0.10636     0.10595     0.16832     0.00000    -0.20740




    ROOT NO.   19          20          21          22          23          24

           -11.37526    -9.49409    -7.42581    -0.45492     1.09247     2.22090
  
  
  S  C   1  -0.00000    -0.00000     0.00000    -0.00000     0.00000     0.00000
 PX  C   1  -0.00000     0.00000     0.00000     0.00000    -0.00000    -0.00000
 PY  C   1  -0.00000    -0.00000    -0.00000    -0.00000     0.00000    -0.00000
 PZ  C   1   0.35343     0.44640    -0.38636    -0.38038     0.43610    -0.34588
  
  S  C   2  -0.00000    -0.00000    -0.00000    -0.00000    -0.00000    -0.00000
 PX  C   2   0.00000     0.00000     0.00000    -0.00000    -0.00000    -0.00000
 PY  C   2   0.00000     0.00000     0.00000     0.00000     0.00000    -0.00000
 PZ  C   2   0.45428     0.39984    -0.19152     0.20016    -0.40710     0.46000
  
  S  C   3   0.00000     0.00000    -0.00000     0.00000     0.00000     0.00000
 PX  C   3  -0.00000    -0.00000    -0.00000    -0.00000     0.00000     0.00000
 PY  C   3  -0.00000    -0.00000    -0.00000    -0.00000    -0.00000    -0.00000
 PZ  C   3   0.37005    -0.09434     0.43234     0.43155    -0.09393    -0.37049
  
  S  C   4   0.00000    -0.00000    -0.00000    -0.00000    -0.00000    -0.00000
 PX  C   4   0.00000    -0.00000    -0.00000     0.00000     0.00000    -0.00000
 PY  C   4   0.00000     0.00000    -0.00000    -0.00000    -0.00000     0.00000
 PZ  C   4   0.17828    -0.36327     0.35655    -0.35919     0.36778     0.17749
  
  S  C   5  -0.00000     0.00000    -0.00000     0.00000     0.00000     0.00000
 PX  C   5   0.00000     0.00000     0.00000    -0.00000    -0.00000    -0.00000
 PY  C   5  -0.00000    -0.00000    -0.00000     0.00000     0.00000     0.00000
 PZ  C   5  -0.17828    -0.36327    -0.35655    -0.35919    -0.36778     0.17749
  
  S  C   6   0.00000    -0.00000     0.00000     0.00000     0.00000    -0.00000
 PX  C   6   0.00000    -0.00000    -0.00000    -0.00000    -0.00000    -0.00000
 PY  C   6   0.00000    -0.00000     0.00000    -0.00000    -0.00000    -0.00000
 PZ  C   6  -0.37005    -0.09434    -0.43234     0.43155     0.09393    -0.37049
  
  S  C   7  -0.00000     0.00000    -0.00000    -0.00000    -0.00000    -0.00000
 PX  C   7  -0.00000     0.00000     0.00000     0.00000    -0.00000     0.00000
 PY  C   7  -0.00000     0.00000     0.00000    -0.00000    -0.00000    -0.00000
 PZ  C   7  -0.45428     0.39984     0.19152     0.20016     0.40710     0.46000
  
  S  C   8   0.00000    -0.00000    -0.00000     0.00000     0.00000     0.00000
 PX  C   8   0.00000    -0.00000    -0.00000    -0.00000     0.00000     0.00000
 PY  C   8   0.00000     0.00000     0.00000     0.00000    -0.00000     0.00000
 PZ  C   8  -0.35343     0.44640     0.38636    -0.38038    -0.43610    -0.34588
  
  S  H   9  -0.00000    -0.00000    -0.00000    -0.00000    -0.00000    -0.00000
  
  S  H  10   0.00000     0.00000    -0.00000    -0.00000    -0.00000    -0.00000
  
  S  H  11   0.00000     0.00000     0.00000     0.00000     0.00000     0.00000
  
  S  H  12   0.00000    -0.00000    -0.00000    -0.00000    -0.00000    -0.00000
  
  S  H  13   0.00000     0.00000     0.00000     0.00000     0.00000     0.00000
  
  S  H  14   0.00000     0.00000     0.00000    -0.00000    -0.00000    -0.00000
  
  S  H  15   0.00000    -0.00000    -0.00000    -0.00000    -0.00000     0.00000
  
  S  H  16   0.00000    -0.00000     0.00000     0.00000     0.00000     0.00000
  
  S  H  17   0.00000    -0.00000    -0.00000    -0.00000     0.00000    -0.00000
  
  S  H  18  -0.00000     0.00000     0.00000    -0.00000     0.00000     0.00000




    ROOT NO.   25          26          27          28          29          30

             2.85863     3.02519     3.53446     4.03389     4.45343     4.82278
  
  
  S  C   1   0.00000    -0.18230    -0.28555     0.31355     0.31396     0.26674
 PX  C   1   0.00000    -0.02269    -0.01709    -0.00677    -0.03439    -0.05393
 PY  C   1   0.00000     0.05470     0.05349    -0.01061     0.06222     0.14040
 PZ  C   1   0.18877     0.00000     0.00000     0.00000     0.00000    -0.00000
  
  S  C   2   0.00000     0.27478     0.36092    -0.25558    -0.04286     0.15303
 PX  C   2   0.00000    -0.04516    -0.02465    -0.01818    -0.02380     0.03706
 PY  C   2  -0.00000    -0.06426    -0.01505    -0.09192    -0.18116    -0.17972
 PZ  C   2  -0.30203    -0.00000    -0.00000    -0.00000     0.00000     0.00000
  
  S  C   3  -0.00000    -0.34491    -0.30383    -0.02904    -0.28989    -0.23054
 PX  C   3  -0.00000    -0.04364    -0.02652     0.02007     0.06036     0.07058
 PY  C   3   0.00000     0.02679    -0.09309     0.17413     0.06114    -0.12227
 PZ  C   3   0.40905    -0.00000    -0.00000    -0.00000    -0.00000     0.00000
  
  S  C   4   0.00000     0.37870     0.11340     0.31825     0.19451    -0.17732
 PX  C   4   0.00000    -0.05115     0.00634     0.00802     0.04954    -0.04814
 PY  C   4   0.00000    -0.01955     0.13162    -0.09963     0.13375     0.14959
 PZ  C   4  -0.45368     0.00000     0.00000     0.00000     0.00000    -0.00000
  
  S  C   5   0.00000    -0.37870     0.11340    -0.31825     0.19451     0.17732
 PX  C   5  -0.00000    -0.05115    -0.00634     0.00802    -0.04954    -0.04814
 PY  C   5  -0.00000    -0.01955    -0.13162    -0.09963    -0.13375     0.14959
 PZ  C   5   0.45368    -0.00000    -0.00000    -0.00000    -0.00000     0.00000
  
  S  C   6  -0.00000     0.34491    -0.30383     0.02904    -0.28989     0.23054
 PX  C   6   0.00000    -0.04364     0.02652     0.02007    -0.06036     0.07058
 PY  C   6  -0.00000     0.02679     0.09309     0.17413    -0.06114    -0.12227
 PZ  C   6  -0.40905    -0.00000     0.00000     0.00000     0.00000     0.00000
  
  S  C   7   0.00000    -0.27478     0.36092     0.25558    -0.04286    -0.15303
 PX  C   7   0.00000    -0.04516     0.02465    -0.01818     0.02380     0.03706
 PY  C   7   0.00000    -0.06426     0.01505    -0.09192     0.18116    -0.17972
 PZ  C   7   0.30203     0.00000     0.00000     0.00000    -0.00000    -0.00000
  
  S  C   8   0.00000     0.18230    -0.28555    -0.31355     0.31396    -0.26674
 PX  C   8   0.00000    -0.02269     0.01709    -0.00677     0.03439    -0.05393
 PY  C   8  -0.00000     0.05470    -0.05349    -0.01061    -0.06222     0.14040
 PZ  C   8  -0.18877    -0.00000    -0.00000    -0.00000    -0.00000     0.00000
  
  S  H   9  -0.00000     0.11649     0.17268    -0.18725    -0.21316    -0.23184
  
  S  H  10  -0.00000     0.08484     0.16456    -0.22151    -0.25623    -0.23550
  
  S  H  11  -0.00000    -0.14257    -0.22782     0.19441     0.03399    -0.15712
  
  S  H  12   0.00000     0.18118     0.19609     0.02135     0.26212     0.23323
  
  S  H  13   0.00000    -0.19917    -0.07115    -0.24942    -0.17493     0.17784
  
  S  H  14  -0.00000     0.19917    -0.07115     0.24942    -0.17493    -0.17784
  
  S  H  15   0.00000    -0.18118     0.19609    -0.02135     0.26212    -0.23323
  
  S  H  16   0.00000     0.14257    -0.22782    -0.19441     0.03399     0.15712
  
  S  H  17  -0.00000    -0.08484     0.16456     0.22151    -0.25623     0.23550
  
  S  H  18   0.00000    -0.11649     0.17268     0.18725    -0.21316     0.23184




    ROOT NO.   31          32          33          34          35          36

             5.36732     5.94660     6.34063     7.61307     7.63118     8.34458
  
  
  S  C   1  -0.16650     0.08242     0.03067     0.00013     0.00133    -0.00039
 PX  C   1   0.05578    -0.03282    -0.00780     0.46854     0.47610    -0.09439
 PY  C   1  -0.19364     0.16692     0.08151     0.14763     0.15588    -0.12403
 PZ  C   1  -0.00000     0.00000    -0.00000     0.00000    -0.00000     0.00000
  
  S  C   2  -0.25418     0.20890     0.10138    -0.03829    -0.03729    -0.04402
 PX  C   2  -0.16953     0.25916     0.18579     0.00834    -0.00727     0.22538
 PY  C   2   0.07799     0.01684     0.03071    -0.00294    -0.01051     0.08170
 PZ  C   2   0.00000    -0.00000     0.00000    -0.00000     0.00000    -0.00000
  
  S  C   3  -0.04206     0.20276     0.15675     0.00722     0.00364     0.07916
 PX  C   3   0.04640    -0.24259    -0.25086     0.11595     0.09154     0.29968
 PY  C   3   0.16506    -0.01270     0.06624     0.01134     0.02273    -0.05984
 PZ  C   3   0.00000    -0.00000     0.00000    -0.00000    -0.00000    -0.00000
  
  S  C   4   0.21192     0.08334     0.19164    -0.01146    -0.00470    -0.09548
 PX  C   4   0.15515     0.08555     0.32715     0.06731     0.01865     0.37003
 PY  C   4   0.07635    -0.13068    -0.02201    -0.01352    -0.02934     0.00983
 PZ  C   4  -0.00000     0.00000    -0.00000     0.00000     0.00000     0.00000
  
  S  C   5   0.21192    -0.08334     0.19164     0.01146    -0.00470     0.09548
 PX  C   5  -0.15515     0.08555    -0.32715     0.06731    -0.01865     0.37003
 PY  C   5  -0.07635    -0.13068     0.02201    -0.01352     0.02934     0.00983
 PZ  C   5   0.00000    -0.00000     0.00000    -0.00000     0.00000    -0.00000
  
  S  C   6  -0.04206    -0.20276     0.15675    -0.00722     0.00364    -0.07916
 PX  C   6  -0.04640    -0.24259     0.25086     0.11595    -0.09154     0.29968
 PY  C   6  -0.16506    -0.01270    -0.06624     0.01134    -0.02273    -0.05984
 PZ  C   6  -0.00000     0.00000    -0.00000     0.00000    -0.00000     0.00000
  
  S  C   7  -0.25418    -0.20890     0.10138     0.03829    -0.03729     0.04402
 PX  C   7   0.16953     0.25916    -0.18579     0.00834     0.00727     0.22538
 PY  C   7  -0.07799     0.01684    -0.03071    -0.00294     0.01051     0.08170
 PZ  C   7  -0.00000     0.00000    -0.00000     0.00000    -0.00000     0.00000
  
  S  C   8  -0.16650    -0.08242     0.03067    -0.00013     0.00133     0.00039
 PX  C   8  -0.05578    -0.03282     0.00780     0.46854    -0.47610    -0.09439
 PY  C   8   0.19364     0.16692    -0.08151     0.14763    -0.15588    -0.12403
 PZ  C   8   0.00000    -0.00000     0.00000    -0.00000     0.00000    -0.00000
  
  S  H   9   0.21671    -0.16251    -0.07959    -0.31643    -0.32423     0.10396
  
  S  H  10   0.15342    -0.06810    -0.01580     0.35188     0.35464    -0.04028
  
  S  H  11   0.30188    -0.30903    -0.18341    -0.03354    -0.02083    -0.15839
  
  S  H  12   0.04899    -0.28613    -0.25332     0.09847     0.07496     0.23291
  
  S  H  13  -0.24946    -0.11535    -0.32572    -0.06244    -0.01973    -0.28061
  
  S  H  14  -0.24946     0.11535    -0.32572     0.06244    -0.01973     0.28061
  
  S  H  15   0.04899     0.28613    -0.25332    -0.09847     0.07496    -0.23291
  
  S  H  16   0.30188     0.30903    -0.18341     0.03354    -0.02083     0.15839
  
  S  H  17   0.15342     0.06810    -0.01580    -0.35188     0.35464     0.04028
  
  S  H  18   0.21671     0.16251    -0.07959     0.31643    -0.32423    -0.10396




    ROOT NO.   37          38          39          40          41          42

             8.72193     9.01224     9.66639    10.57406    12.22329    13.98093
  
  
  S  C   1   0.01453    -0.02766    -0.05756    -0.08930     0.09670    -0.06328
 PX  C   1  -0.03490    -0.02876    -0.11011    -0.14581     0.11959    -0.06303
 PY  C   1  -0.16707     0.15508     0.23320     0.33306    -0.31491     0.18583
 PZ  C   1  -0.00000     0.00000    -0.00000    -0.00000     0.00000    -0.00000
  
  S  C   2  -0.09405     0.10087     0.10608     0.09367    -0.02011    -0.02236
 PX  C   2   0.35816    -0.33719    -0.25583    -0.14246    -0.02333     0.06249
 PY  C   2   0.08738    -0.02792     0.15068     0.33346    -0.42589     0.30035
 PZ  C   2   0.00000    -0.00000     0.00000     0.00000    -0.00000    -0.00000
  
  S  C   3   0.10219    -0.03725     0.08399     0.11288    -0.03294    -0.04179
 PX  C   3   0.37768    -0.18503     0.17868     0.23361    -0.09271    -0.01018
 PY  C   3   0.06015    -0.22001    -0.29377    -0.06905    -0.33992     0.39795
 PZ  C   3   0.00000     0.00000     0.00000     0.00000    -0.00000     0.00000
  
  S  C   4  -0.04284    -0.09879    -0.10701     0.02796    -0.09434     0.00868
 PX  C   4   0.10287     0.36000     0.24961    -0.10283     0.12965     0.03574
 PY  C   4  -0.14685     0.15283    -0.24733    -0.30304    -0.15430     0.44285
 PZ  C   4  -0.00000    -0.00000    -0.00000    -0.00000    -0.00000     0.00000
  
  S  C   5  -0.04284     0.09879    -0.10701    -0.02796    -0.09434    -0.00868
 PX  C   5  -0.10287     0.36000    -0.24961    -0.10283    -0.12965     0.03574
 PY  C   5   0.14685     0.15283     0.24733    -0.30304     0.15430     0.44285
 PZ  C   5   0.00000     0.00000     0.00000     0.00000    -0.00000     0.00000
  
  S  C   6   0.10219     0.03725     0.08399    -0.11288    -0.03294     0.04179
 PX  C   6  -0.37768    -0.18503    -0.17868     0.23361     0.09271    -0.01018
 PY  C   6  -0.06015    -0.22001     0.29377    -0.06905     0.33992     0.39795
 PZ  C   6  -0.00000    -0.00000    -0.00000    -0.00000     0.00000    -0.00000
  
  S  C   7  -0.09405    -0.10087     0.10608    -0.09367    -0.02011     0.02236
 PX  C   7  -0.35816    -0.33719     0.25583    -0.14246     0.02333     0.06249
 PY  C   7  -0.08738    -0.02792    -0.15068     0.33346     0.42589     0.30035
 PZ  C   7  -0.00000     0.00000    -0.00000    -0.00000    -0.00000     0.00000
  
  S  C   8   0.01453     0.02766    -0.05756     0.08930     0.09670     0.06328
 PX  C   8   0.03490    -0.02876     0.11011    -0.14581    -0.11959    -0.06303
 PY  C   8   0.16707     0.15508    -0.23320     0.33306     0.31491     0.18583
 PZ  C   8   0.00000     0.00000     0.00000     0.00000     0.00000    -0.00000
  
  S  H   9   0.09048    -0.05501    -0.06519    -0.10111     0.09749    -0.05597
  
  S  H  10   0.01046    -0.04581    -0.09072    -0.10610     0.07704    -0.03789
  
  S  H  11  -0.23641     0.20868     0.14992     0.09218    -0.01417    -0.01047
  
  S  H  12   0.25293    -0.09593     0.11530     0.11538    -0.02229    -0.02211
  
  S  H  13  -0.08397    -0.21234    -0.14936     0.03177    -0.06297     0.00472
  
  S  H  14  -0.08397     0.21234    -0.14936    -0.03177    -0.06297    -0.00472
  
  S  H  15   0.25293     0.09593     0.11530    -0.11538    -0.02229     0.02211
  
  S  H  16  -0.23641    -0.20868     0.14992    -0.09218    -0.01417     0.01047
  
  S  H  17   0.01046     0.04581    -0.09072     0.10610     0.07704     0.03789
  
  S  H  18   0.09048     0.05501    -0.06519     0.10111     0.09749     0.05597


 Reference determinate nber   1 is ALPHA 1 -  21
 CAS excitations amongst orbitals:  21  22
 SINGLE excitations FROM orbs  10 to  21 INTO orbs  22 to  33
 

 CI excitations=  500:        =500
 The lowest  500 spin-adapted configurations of multiplicity=  1
     sym   eV   cm**-1 -dets- dipole oscilator X FRAG ....Excitations named from first reference determinate
                       tot  #  Debye  strength
 
   1      0.000      0.  1  1  0.0000 0.000000 0  0 (            )->(               )
   2      4.256  34328.  2  1  0.0000 1.853465 1  1 (  21        )->(  22           )
   3      5.592  45100.  2  1  0.0000 0.000000 1  1 (  21        )->(  23           )
   4      6.128  49424.  2  1  0.0000 0.000000 1  1 (  20        )->(  22           )
   5      6.195  49965.  2  1  0.0000 0.000013 1  1 (  21        )->(  26           )
   6      6.267  50544.  1  1  0.0000 0.000000 2  0 (  21  21    )->(  22  22       )
   7      6.496  52392.  2  1  0.0000 0.010230 1  1 (  21        )->(  24           )
   8      6.831  55099.  2  1  0.0000 0.000000 1  1 (  21        )->(  25           )
   9      6.984  56329.  2  1  0.0000 0.000000 1  1 (  21        )->(  27           )
  10      7.445  60044.  2  1  0.0000 0.000950 1  1 (  21        )->(  28           )
  11      7.762  62609.  2  1  0.0000 0.000138 1  1 (  18        )->(  22           )
  12      7.777  62730.  2  1  0.0000 0.507712 1  1 (  20        )->(  23           )
  13      7.781  62760.  2  1  0.0000 0.010246 1  1 (  19        )->(  22           )
  14      7.895  63679.  2  1  0.0000 0.000000 1  1 (  21        )->(  29           )
  15      8.200  66141.  2  1  0.0000 0.000087 1  1 (  15        )->(  22           )
  16      8.260  66622.  2  1  0.0000 0.111350 1  1 (  21        )->(  30           )
  17      8.525  68756.  2  1  0.0000 0.000000 1  1 (  20        )->(  26           )
  18      8.559  69036.  2  1  0.0000 0.000000 1  1 (  20        )->(  24           )
  19      8.600  69363.  2  1  0.0000 0.000000 1  1 (  16        )->(  22           )
  20      8.759  70649.  2  1  0.0000 0.000000 1  1 (  21        )->(  31           )
  21      8.793  70919.  2  1  0.0000 0.000000 1  1 (  17        )->(  22           )
  22      8.874  71570.  2  1  0.0000 0.002735 1  1 (  20        )->(  25           )
  23      9.117  73532.  2  1  0.0000 0.000026 1  1 (  20        )->(  27           )
  24      9.216  74335.  2  1  0.0000 0.002954 1  1 (  21        )->(  32           )
  25      9.275  74808.  2  1  0.0000 0.000000 1  1 (  21        )->(  33           )
  26      9.285  74888.  2  1  0.0000 0.000000 2  1 (  21  21    )->(  22  23       )
  27      9.313  75116.  2  1  0.0000 0.000000 1  1 (  19        )->(  23           )
  28      9.338  75320.  2  1  0.0000 0.000000 2  1 (  21  21    )->(  22  26       )
  29      9.451  76227.  2  1  0.0000 0.000397 1  1 (  14        )->(  22           )
  30      9.506  76674.  2  1  0.0000 0.000000 1  1 (  18        )->(  23           )
  31      9.631  77676.  2  1  0.0000 0.000000 1  1 (  20        )->(  28           )
  32      9.831  79289.  2  1  0.0000 0.000000 2  1 (  20  21    )->(  22  22       )
  33      9.895  79805.  2  1  0.0000 0.000000 2  1 (  21  21    )->(  22  24       )
  34     10.059  81133.  2  1  0.0000 0.009881 1  1 (  20        )->(  29           )
  35     10.086  81347.  2  1  0.0000 0.000000 1  1 (  13        )->(  22           )
  36     10.119  81614.  2  1  0.0000 0.000000 2  1 (  21  21    )->(  22  27       )
  37     10.151  81877.  2  1  0.0000 0.000000 2  1 (  21  21    )->(  22  25       )
  38     10.193  82208.  2  1  0.0000 0.000000 1  1 (  15        )->(  23           )
  39     10.197  82248.  2  1  0.0000 0.000029 1  1 (  16        )->(  23           )
  40     10.302  83089.  2  1  0.0000 0.002202 1  1 (  17        )->(  23           )
  41     10.344  83434.  2  1  0.0000 0.000000 1  1 (  19        )->(  26           )
  42     10.363  83583.  2  1  0.0000 0.269692 1  1 (  19        )->(  24           )
  43     10.400  83886.  2  1  0.0000 0.000000 1  1 (  20        )->(  30           )
  44     10.567  85229.  6  1  0.0000 0.000000 2  1 (  20  21    )->(  22  23       )
  45     10.574  85287.  2  1  0.0000 0.002247 1  1 (  18        )->(  24           )
  46     10.579  85329.  2  1  0.0000 0.000000 2  1 (  21  21    )->(  22  28       )
  47     10.660  85978.  2  1  0.0000 0.000000 1  1 (  19        )->(  25           )
  48     10.859  87581.  2  1  0.0000 0.000000 1  1 (  18        )->(  25           )
  49     10.872  87689.  2  1  0.0000 0.104210 1  1 (  20        )->(  31           )
  50     10.889  87828.  2  1  0.0000 0.000000 2  1 (  18  21    )->(  22  22       )
  51     10.910  87999.  2  1  0.0000 0.000000 1  1 (  14        )->(  23           )
  52     10.919  88067.  2  1  0.0000 0.000000 1  1 (  19        )->(  27           )
  53     11.024  88915.  2  1  0.0000 0.000000 2  1 (  21  21    )->(  22  29       )
  54     11.136  89820.  2  1  0.0000 0.000000 1  1 (  15        )->(  25           )
  55     11.167  90071.  2  1  0.0000 0.000000 1  1 (  16        )->(  24           )
  56     11.177  90152.  2  1  0.0000 0.000000 2  1 (  19  21    )->(  22  22       )
  57     11.206  90383.  2  1  0.0000 0.000000 1  1 (  17        )->(  26           )
  58     11.238  90641.  2  1  0.0000 0.000000 1  1 (  12        )->(  22           )
  59     11.300  91141.  2  1  0.0000 0.000734 1  1 (  15        )->(  24           )
  60     11.324  91334.  2  1  0.0000 0.000000 2  1 (  15  21    )->(  22  22       )
  61     11.339  91455.  2  1  0.0000 0.000000 1  1 (  17        )->(  24           )
  62     11.391  91874.  2  1  0.0000 0.000000 2  1 (  21  21    )->(  22  30       )
  63     11.414  92060.  2  1  0.0000 0.000000 1  1 (  20        )->(  32           )
  64     11.484  92622.  2  1  0.0000 0.002942 1  1 (  19        )->(  28           )
  65     11.679  94197.  2  1  0.0000 0.235593 1  1 (  17        )->(  25           )
  66     11.710  94450.  2  1  0.0000 0.183699 1  1 (  18        )->(  26           )
  67     11.725  94572.  2  1  0.0000 0.001651 1  1 (  20        )->(  33           )
  68     11.731  94620.  2  1  0.0000 0.000000 2  1 (  16  21    )->(  22  22       )
  69     11.774  94967.  2  1  0.0000 0.001357 1  1 (  13        )->(  23           )
  70     11.782  95028.  6  1  0.0000 0.000000 2  1 (  20  21    )->(  22  24       )
  71     11.850  95574.  2  1  0.0000 0.001964 1  1 (  16        )->(  25           )
  72     11.897  95956.  2  1  0.0000 0.000000 2  1 (  21  21    )->(  22  31       )
  73     11.903  96000.  2  1  0.0000 0.000000 1  1 (  19        )->(  29           )
  74     12.038  97089.  6  1  0.0000 0.000000 2  1 (  20  21    )->(  22  26       )
  75     12.081  97441.  2  1  0.0000 0.000000 2  1 (  17  21    )->(  22  22       )
  76     12.085  97472.  2  1  0.0000 0.005272 1  1 (  14        )->(  24           )
  77     12.106  97641.  2  1  0.0000 0.091151 1  1 (  15        )->(  26           )
  78     12.180  98236.  2  1  0.0000 0.000743 1  1 (  17        )->(  27           )
  79     12.244  98756.  2  1  0.0000 0.004159 1  1 (  19        )->(  30           )
  80     12.355  99653.  2  1  0.0000 0.000000 2  1 (  21  21    )->(  22  32       )
  81     12.374  99801.  6  1  0.0000 0.000000 2  1 (  20  21    )->(  22  25       )
  82     12.420 100175.  2  1  0.0000 0.000000 2  1 (  21  21    )->(  22  33       )
  83     12.437 100308.  2  1  0.0000 0.000000 1  1 (  16        )->(  26           )
  84     12.498 100799.  2  1  0.0000 0.000000 1  1 (  18        )->(  27           )
  85     12.528 101043.  6  2  0.0000 0.000000 2  1 (  20  21    )->(  22  23       )
  86     12.534 101095.  6  1  0.0000 0.000000 2  1 (  19  21    )->(  22  23       )
  87     12.564 101333.  6  1  0.0000 0.000000 2  1 (  20  21    )->(  22  27       )
  88     12.583 101487.  2  1  0.0000 0.000000 2  1 (  14  21    )->(  22  22       )
  89     12.590 101546.  2  1  0.0000 0.000000 1  1 (  17        )->(  28           )
  90     12.679 102267.  2  1  0.0000 0.000000 1  1 (  14        )->(  25           )
  91     12.711 102525.  2  1  0.0000 0.010100 1  1 (  12        )->(  23           )
  92     12.725 102632.  2  1  0.0000 0.000000 1  1 (  19        )->(  31           )
  93     12.791 103165.  2  1  0.0000 0.020661 1  1 (  11        )->(  22           )
  94     12.878 103872.  2  1  0.0000 0.000000 1  1 (  13        )->(  24           )
  95     12.917 104186.  2  1  0.0000 0.000000 3  1 (  20  21  21)->(  22  22  23   )
  96     12.944 104399.  2  1  0.0000 0.007372 1  1 (  18        )->(  28           )
  97     12.966 104579.  6  1  0.0000 0.000000 2  1 (  18  21    )->(  22  23       )
  98     12.997 104829.  2  1  0.0000 0.000000 1  1 (  15        )->(  27           )
  99     13.027 105067.  6  2  0.0000 0.000000 2  1 (  20  21    )->(  22  26       )
 100     13.033 105119.  6  1  0.0000 0.000000 2  1 (  20  21    )->(  22  28       )
 101     13.073 105438.  2  1  0.0000 0.000590 1  1 (  17        )->(  29           )
 102     13.140 105980.  2  1  0.0000 0.140540 1  1 (  16        )->(  27           )
 103     13.143 106003.  2  1  0.0000 0.092995 1  1 (  19        )->(  32           )
 104     13.219 106615.  2  1  0.0000 0.015237 1  1 (  14        )->(  26           )
 105     13.223 106649.  2  1  0.0000 0.000000 2  1 (  13  21    )->(  22  22       )
 106     13.237 106767.  6  2  0.0000 0.000000 2  1 (  20  21    )->(  22  24       )
 107     13.321 107442.  2  1  0.0000 0.000000 1  1 (  18        )->(  29           )
 108     13.389 107992.  2  1  0.0000 0.012679 1  1 (  13        )->(  25           )
 109     13.442 108418.  2  1  0.0000 0.034040 1  1 (  15        )->(  28           )
 110     13.458 108544.  2  1  0.0000 0.000000 1  1 (  17        )->(  30           )
 111     13.549 109278.  2  1  0.0000 0.000000 1  1 (  16        )->(  28           )
 112     13.551 109300.  6  2  0.0000 0.000000 2  1 (  20  21    )->(  22  27       )
 113     13.561 109377.  6  1  0.0000 0.000000 2  1 (  20  21    )->(  22  29       )
 114     13.561 109381.  2  1  0.0000 0.000000 1  1 (  19        )->(  33           )
 115     13.616 109823.  6  1  0.0000 0.000000 2  1 (  18  21    )->(  22  26       )
 116     13.641 110021.  6  1  0.0000 0.000000 2  1 (  19  21    )->(  22  24       )
 117     13.661 110188.  6  1  0.0000 0.000000 2  1 (  16  21    )->(  22  23       )
 118     13.667 110235.  6  1  0.0000 0.000000 2  1 (  15  21    )->(  22  23       )
 119     13.763 111003.  2  1  0.0000 0.000000 1  1 (  12        )->(  24           )
 120     13.763 111008.  2  1  0.0000 0.003607 1  1 (  18        )->(  30           )
 121     13.792 111243.  6  1  0.0000 0.000000 2  1 (  17  21    )->(  22  23       )
 122     13.815 111429.  6  2  0.0000 0.000000 2  1 (  20  21    )->(  22  25       )
 123     13.874 111898.  6  1  0.0000 0.000000 2  1 (  20  21    )->(  22  30       )
 124     13.879 111942.  2  1  0.0000 0.000000 1  1 (  14        )->(  27           )
 125     13.920 112270.  2  1  0.0000 0.001694 1  1 (  17        )->(  31           )
 126     13.928 112335.  2  1  0.0000 0.000000 1  1 (  15        )->(  29           )
 127     13.931 112358.  6  1  0.0000 0.000000 2  1 (  15  21    )->(  22  26       )
 128     13.936 112403.  6  2  0.0000 0.000000 2  1 (  18  21    )->(  22  23       )
 129     13.954 112551.  6  1  0.0000 0.000000 2  1 (  19  21    )->(  22  26       )
 130     13.973 112703.  2  1  0.0000 0.000000 1  1 (  13        )->(  26           )
 131     13.977 112736.  6  2  0.0000 0.000000 2  1 (  19  21    )->(  22  23       )
 132     13.988 112818.  2  1  0.0000 0.002086 1  1 (  16        )->(  29           )
 133     14.002 112933.  2  1  0.0000 0.000000 3  1 (  20  21  21)->(  22  22  24   )
 134     14.029 113152.  6  2  0.0000 0.000000 2  1 (  20  21    )->(  22  28       )
 135     14.101 113731.  6  1  0.0000 0.000000 2  1 (  18  21    )->(  22  24       )
 136     14.158 114193.  2  1  0.0000 0.076951 1  1 (  17        )->(  33           )
 137     14.169 114284.  2  1  0.0000 0.000000 1  1 (  18        )->(  31           )
 138     14.185 114407.  2  1  0.0000 0.002017 1  1 (  10        )->(  22           )
 139     14.240 114856.  2  1  0.0000 0.000000 3  1 (  20  21  21)->(  22  22  26   )
 140     14.257 114988.  2  1  0.0000 0.004493 1  1 (  15        )->(  30           )
 141     14.290 115256.  6  1  0.0000 0.000000 2  1 (  20  21    )->(  22  31       )
 142     14.344 115689.  2  1  0.0000 0.000000 1  1 (  17        )->(  32           )
 143     14.351 115750.  6  1  0.0000 0.000000 2  1 (  19  21    )->(  22  27       )
 144     14.352 115753.  6  1  0.0000 0.000000 2  1 (  14  21    )->(  22  23       )
 145     14.354 115776.  2  1  0.0000 0.000000 1  1 (  16        )->(  30           )
 146     14.368 115887.  6  1  0.0000 0.000000 2  1 (  18  21    )->(  22  27       )
 147     14.372 115918.  2  1  0.0000 0.000000 2  1 (  12  21    )->(  22  22       )
 148     14.411 116235.  6  1  0.0000 0.000000 2  1 (  19  21    )->(  22  25       )
 149     14.417 116285.  2  1  0.0000 0.000000 1  1 (  11        )->(  23           )
 150     14.422 116320.  2  1  0.0000 0.000000 3  1 (  20  21  21)->(  22  22  25   )
 151     14.481 116798.  2  1  0.0000 0.160961 1  1 (  14        )->(  28           )
 152     14.514 117064.  6  1  0.0000 0.000000 2  1 (  18  21    )->(  22  25       )
 153     14.520 117115.  6  1  0.0000 0.000000 2  1 (  16  21    )->(  22  26       )
 154     14.544 117307.  6  2  0.0000 0.000000 2  1 (  20  21    )->(  22  29       )
 155     14.555 117391.  2  1  0.0000 0.009554 1  1 (  12        )->(  25           )
 156     14.577 117568.  6  2  0.0000 0.000000 2  1 (  19  21    )->(  22  26       )
 157     14.618 117902.  2  1  0.0000 0.005748 1  1 (  18        )->(  32           )
 158     14.632 118016.  6  2  0.0000 0.000000 2  1 (  16  21    )->(  22  23       )
 159     14.637 118052.  6  2  0.0000 0.000000 2  1 (  15  21    )->(  22  23       )
 160     14.644 118116.  2  1  0.0000 0.023265 1  1 (  13        )->(  27           )
 161     14.648 118145.  6  2  0.0000 0.000000 2  1 (  19  21    )->(  22  24       )
 162     14.679 118395.  6  1  0.0000 0.000000 2  1 (  16  21    )->(  22  24       )
 163     14.700 118563.  2  1  0.0000 0.000000 1  1 (  18        )->(  33           )
 164     14.750 118970.  2  1  0.0000 0.000000 3  1 (  19  21  21)->(  22  22  23   )
 165     14.758 119034.  2  1  0.0000 0.000000 1  1 (  15        )->(  31           )
 166     14.783 119230.  6  2  0.0000 0.000000 2  1 (  18  21    )->(  22  24       )
 167     14.791 119295.  6  1  0.0000 0.000000 2  1 (  15  21    )->(  22  25       )
 168     14.809 119440.  6  1  0.0000 0.000000 2  1 (  17  21    )->(  22  26       )
 169     14.819 119520.  2  1  0.0000 0.000000 3  1 (  20  21  21)->(  22  22  27   )
 170     14.819 119525.  2  1  0.0000 0.000000 1  1 (  14        )->(  29           )
 171     14.822 119550.  6  1  0.0000 0.000000 2  1 (  18  21    )->(  22  28       )
 172     14.857 119832.  6  2  0.0000 0.000000 2  1 (  20  21    )->(  22  30       )
 173     14.860 119857.  6  1  0.0000 0.000000 2  1 (  15  21    )->(  22  24       )
 174     14.872 119951.  2  1  0.0000 0.011147 1  1 (  16        )->(  31           )
 175     14.888 120076.  6  1  0.0000 0.000000 2  1 (  16  21    )->(  22  27       )
 176     14.889 120088.  6  1  0.0000 0.000000 2  1 (  20  21    )->(  22  32       )
 177     15.038 121292.  6  1  0.0000 0.000000 2  1 (  19  21    )->(  22  28       )
 178     15.077 121607.  6  2  0.0000 0.000000 2  1 (  18  21    )->(  22  25       )
 179     15.084 121663.  6  1  0.0000 0.000000 2  1 (  17  21    )->(  22  24       )
 180     15.093 121736.  6  1  0.0000 0.000000 2  1 (  15  21    )->(  22  27       )
 181     15.109 121866.  2  1  0.0000 0.000000 1  1 (  12        )->(  26           )
 182     15.118 121934.  6  2  0.0000 0.000000 2  1 (  19  21    )->(  22  27       )
 183     15.121 121961.  2  1  0.0000 0.000000 1  1 (  13        )->(  28           )
 184     15.193 122542.  2  1  0.0000 0.033858 1  1 (  14        )->(  30           )
 185     15.196 122567.  6  2  0.0000 0.000000 2  1 (  17  21    )->(  22  23       )
 186     15.199 122591.  6  2  0.0000 0.000000 2  1 (  19  21    )->(  22  25       )
 187     15.202 122612.  2  1  0.0000 0.000000 3  1 (  18  21  21)->(  22  22  23   )
 188     15.215 122716.  2  1  0.0000 0.048659 1  1 (  15        )->(  32           )
 189     15.219 122750.  6  1  0.0000 0.000000 2  1 (  20  21    )->(  22  33       )
 190     15.243 122940.  2  1  0.0000 0.000000 1  1 (  15        )->(  33           )
 191     15.256 123052.  6  1  0.0000 0.000000 2  1 (  13  21    )->(  22  23       )
 192     15.283 123263.  6  1  0.0000 0.000000 2  1 (  17  21    )->(  22  25       )
 193     15.284 123274.  6  2  0.0000 0.000000 2  1 (  20  21    )->(  22  31       )
 194     15.325 123608.  6  2  0.0000 0.000000 2  1 (  14  21    )->(  22  23       )
 195     15.333 123671.  2  1  0.0000 0.000000 3  1 (  20  21  21)->(  22  22  28   )
 196     15.352 123821.  6  2  0.0000 0.000000 2  1 (  15  21    )->(  22  25       )
 197     15.361 123897.  6  1  0.0000 0.000000 2  1 (  15  21    )->(  22  28       )
 198     15.365 123925.  6  1  0.0000 0.000000 2  1 (  14  21    )->(  22  26       )
 199     15.365 123929.  6  1  0.0000 0.000000 2  1 (  18  21    )->(  22  29       )
 200     15.378 124029.  6  2  0.0000 0.000000 2  1 (  16  21    )->(  22  24       )
 201     15.413 124311.  6  2  0.0000 0.000000 2  1 (  17  21    )->(  22  26       )
 202     15.468 124756.  2  1  0.0000 0.000000 1  1 (  16        )->(  32           )
 203     15.511 125104.  6  2  0.0000 0.000000 2  1 (  15  21    )->(  22  24       )
 204     15.515 125134.  6  1  0.0000 0.000000 2  1 (  19  21    )->(  22  29       )
 205     15.531 125262.  6  1  0.0000 0.000000 2  1 (  16  21    )->(  22  25       )
 206     15.542 125359.  2  1  0.0000 0.025978 1  1 (  11        )->(  24           )
 207     15.554 125449.  6  1  0.0000 0.000000 2  1 (  16  21    )->(  22  28       )
 208     15.604 125854.  6  1  0.0000 0.000000 2  1 (  14  21    )->(  22  24       )
 209     15.637 126119.  2  1  0.0000 0.128180 1  1 (  13        )->(  29           )
 210     15.650 126223.  2  1  0.0000 0.015775 1  1 (  12        )->(  27           )
 211     15.657 126284.  6  1  0.0000 0.000000 2  1 (  18  21    )->(  22  30       )
 212     15.699 126624.  6  2  0.0000 0.000000 2  1 (  19  21    )->(  22  28       )
 213     15.755 127072.  2  1  0.0000 0.000000 3  1 (  20  21  21)->(  22  22  29   )
 214     15.760 127109.  2  1  0.0000 0.036919 1  1 (  16        )->(  33           )
 215     15.790 127354.  2  1  0.0000 0.000000 1  1 (  14        )->(  31           )
 216     15.810 127512.  6  1  0.0000 0.000000 2  1 (  19  21    )->(  22  30       )
 217     15.816 127569.  2  1  0.0000 0.000000 1  1 (  10        )->(  23           )
 218     15.819 127585.  2  1  0.0000 0.000000 3  1 (  17  21  21)->(  22  22  23   )
 219     15.823 127625.  6  1  0.0000 0.000000 2  1 (  14  21    )->(  22  27       )
 220     15.853 127862.  6  2  0.0000 0.000000 2  1 (  17  21    )->(  22  24       )
 221     15.875 128044.  6  2  0.0000 0.000000 2  1 (  20  21    )->(  22  32       )
 222     15.880 128085.  6  1  0.0000 0.000000 2  1 (  17  21    )->(  22  27       )
 223     15.881 128089.  2  1  0.0000 0.000000 3  1 (  15  21  21)->(  22  22  23   )
 224     15.901 128254.  2  1  0.0000 0.000000 3  1 (  16  21  21)->(  22  22  23   )
 225     15.902 128255.  6  1  0.0000 0.000000 2  1 (  15  21    )->(  22  29       )
 226     15.927 128463.  2  1  0.0000 0.000000 2  1 (  11  21    )->(  22  22       )
 227     15.946 128613.  6  2  0.0000 0.000000 2  1 (  17  21    )->(  22  25       )
 228     15.969 128796.  6  2  0.0000 0.000000 2  1 (  18  21    )->(  22  26       )
 229     15.985 128929.  2  1  0.0000 0.000000 1  1 (  13        )->(  30           )
 230     16.007 129108.  6  1  0.0000 0.000000 2  1 (  16  21    )->(  22  29       )
 231     16.072 129627.  6  1  0.0000 0.000000 2  1 (  18  21    )->(  22  31       )
 232     16.075 129651.  6  2  0.0000 0.000000 2  1 (  16  21    )->(  22  25       )
 233     16.093 129798.  2  1  0.0000 0.000000 1  1 (  11        )->(  25           )
 234     16.098 129837.  2  1  0.0000 0.000000 3  1 (  20  21  21)->(  22  22  30   )
 235     16.103 129878.  2  1  0.0000 0.000000 3  1 (  19  21  21)->(  22  22  24   )
 236     16.125 130054.  6  2  0.0000 0.000000 2  1 (  19  21    )->(  22  29       )
 237     16.132 130111.  6  1  0.0000 0.000000 2  1 (  13  21    )->(  22  26       )
 238     16.158 130321.  6  1  0.0000 0.000000 2  1 (  12  21    )->(  22  23       )
 239     16.205 130706.  6  2  0.0000 0.000000 2  1 (  20  21    )->(  22  33       )
 240     16.222 130843.  6  1  0.0000 0.000000 2  1 (  19  21    )->(  22  31       )
 241     16.226 130876.  2  1  0.0000 0.000000 1  1 (  12        )->(  28           )
 242     16.227 130879.  6  2  0.0000 0.000000 2  1 (  13  21    )->(  22  23       )
 243     16.235 130948.  6  1  0.0000 0.000000 2  1 (  14  21    )->(  22  28       )
 244     16.261 131155.  6  1  0.0000 0.000000 2  1 (  17  21    )->(  22  28       )
 245     16.274 131261.  2  1  0.0000 0.079622 1  1 (  14        )->(  32           )
 246     16.284 131342.  6  1  0.0000 0.000000 2  1 (  15  21    )->(  22  30       )
 247     16.284 131342.  6  1  0.0000 0.000000 2  1 (  16  21    )->(  22  30       )
 248     16.296 131440.  6  2  0.0000 0.000000 2  1 (  14  21    )->(  22  24       )
 249     16.355 131915.  6  1  0.0000 0.000000 2  1 (  14  21    )->(  22  25       )
 250     16.357 131930.  2  1  0.0000 0.000000 3  1 (  19  21  21)->(  22  22  26   )
 251     16.361 131959.  6  2  0.0000 0.000000 2  1 (  15  21    )->(  22  26       )
 252     16.387 132172.  6  2  0.0000 0.000000 2  1 (  17  21    )->(  22  27       )
 253     16.429 132505.  2  1  0.0000 0.134897 1  1 (  13        )->(  31           )
 254     16.436 132562.  6  1  0.0000 0.000000 2  1 (  13  21    )->(  22  24       )
 255     16.459 132749.  6  2  0.0000 0.000000 2  1 (  19  21    )->(  22  30       )
 256     16.505 133126.  2  1  0.0000 0.000000 3  1 (  19  21  21)->(  22  22  25   )
 257     16.559 133557.  6  1  0.0000 0.000000 2  1 (  18  21    )->(  22  32       )
 258     16.560 133563.  2  1  0.0000 0.000000 1  1 (  14        )->(  33           )
 259     16.572 133665.  2  1  0.0000 0.000000 3  1 (  18  21  21)->(  22  22  24   )
 260     16.578 133707.  2  1  0.0000 0.000000 3  1 (  20  21  21)->(  22  22  31   )
 261     16.615 134010.  2  1  0.0000 0.000000 3  1 (  14  21  21)->(  22  22  23   )
 262     16.621 134056.  2  1  0.0000 0.000120 1  1 (  11        )->(  26           )
 263     16.632 134144.  6  1  0.0000 0.000000 2  1 (  13  21    )->(  22  27       )
 264     16.644 134244.  6  1  0.0000 0.000000 2  1 (  19  21    )->(  22  32       )
 265     16.665 134415.  6  1  0.0000 0.000000 2  1 (  18  21    )->(  22  33       )
 266     16.672 134468.  6  1  0.0000 0.000000 2  1 (  15  21    )->(  22  31       )
 267     16.678 134520.  6  1  0.0000 0.000000 2  1 (  16  21    )->(  22  31       )
 268     16.699 134689.  6  2  0.0000 0.000000 2  1 (  16  21    )->(  22  26       )
 269     16.705 134733.  2  1  0.0000 0.124548 1  1 (  12        )->(  29           )
 270     16.749 135090.  6  2  0.0000 0.000000 2  1 (  18  21    )->(  22  27       )
 271     16.755 135136.  6  1  0.0000 0.000000 2  1 (  15  21    )->(  22  33       )
 272     16.795 135461.  6  2  0.0000 0.000000 2  1 (  17  21    )->(  22  28       )
 273     16.819 135657.  6  1  0.0000 0.000000 2  1 (  17  21    )->(  22  29       )
 274     16.873 136091.  6  1  0.0000 0.000000 2  1 (  14  21    )->(  22  29       )
 275     16.904 136342.  6  2  0.0000 0.000000 2  1 (  14  21    )->(  22  25       )
 276     16.918 136452.  2  1  0.0000 0.000000 3  1 (  19  21  21)->(  22  22  27   )
 277     16.934 136580.  6  2  0.0000 0.000000 2  1 (  19  21    )->(  22  31       )
 278     16.963 136812.  2  1  0.0000 0.000000 3  1 (  18  21  21)->(  22  22  25   )
 279     16.998 137100.  2  1  0.0000 0.043184 1  1 (  10        )->(  24           )
 280     17.016 137245.  2  1  0.0000 0.000000 1  1 (  13        )->(  32           )
 281     17.059 137592.  2  1  0.0000 0.000000 1  1 (  12        )->(  30           )
 282     17.071 137687.  6  1  0.0000 0.000000 2  1 (  16  21    )->(  22  32       )
 283     17.088 137821.  6  1  0.0000 0.000000 2  1 (  13  21    )->(  22  25       )
 284     17.100 137919.  6  2  0.0000 0.000000 2  1 (  13  21    )->(  22  24       )
 285     17.123 138104.  2  1  0.0000 0.000000 3  1 (  20  21  21)->(  22  22  32   )
 286     17.131 138168.  6  1  0.0000 0.000000 2  1 (  14  21    )->(  22  30       )
 287     17.131 138171.  6  2  0.0000 0.000000 2  1 (  12  21    )->(  22  23       )
 288     17.138 138227.  6  1  0.0000 0.000000 2  1 (  13  21    )->(  22  28       )
 289     17.147 138298.  6  1  0.0000 0.000000 2  1 (  15  21    )->(  22  32       )
 290     17.153 138351.  6  1  0.0000 0.000000 2  1 (  19  21    )->(  22  33       )
 291     17.158 138392.  2  1  0.0000 0.000000 3  1 (  17  21  21)->(  22  22  24   )
 292     17.174 138515.  6  1  0.0000 0.000000 2  1 (  17  21    )->(  22  30       )
 293     17.174 138518.  2  1  0.0000 0.000000 3  1 (  16  21  21)->(  22  22  24   )
 294     17.196 138693.  6  2  0.0000 0.000000 2  1 (  18  21    )->(  22  28       )
 295     17.224 138918.  2  1  0.0000 0.000000 1  1 (  11        )->(  27           )
 296     17.233 138995.  2  1  0.0000 0.000000 3  1 (  15  21  21)->(  22  22  25   )
 297     17.245 139092.  6  2  0.0000 0.000000 2  1 (  15  21    )->(  22  27       )
 298     17.249 139126.  6  1  0.0000 0.000000 2  1 (  12  21    )->(  22  26       )
 299     17.279 139368.  6  1  0.0000 0.000000 2  1 (  12  21    )->(  22  24       )
 300     17.281 139383.  6  2  0.0000 0.000000 2  1 (  17  21    )->(  22  29       )
 301     17.291 139462.  2  1  0.0000 0.000000 3  1 (  15  21  21)->(  22  22  24   )
 302     17.292 139467.  2  1  0.0000 0.009354 1  1 (  13        )->(  33           )
 303     17.298 139522.  2  1  0.0000 0.000000 3  1 (  17  21  21)->(  22  22  26   )
 304     17.318 139682.  2  1  0.0000 0.000000 2  1 (  10  21    )->(  22  22       )
 305     17.354 139966.  6  2  0.0000 0.000000 2  1 (  19  21    )->(  22  32       )
 306     17.396 140305.  6  2  0.0000 0.000000 2  1 (  16  21    )->(  22  27       )
 307     17.402 140360.  6  1  0.0000 0.000000 2  1 (  14  21    )->(  22  31       )
 308     17.413 140449.  2  1  0.0000 0.000000 1  1 (  10        )->(  25           )
 309     17.446 140712.  2  1  0.0000 0.000000 3  1 (  20  21  21)->(  22  22  33   )
 310     17.482 140998.  6  2  0.0000 0.000000 2  1 (  14  21    )->(  22  26       )
 311     17.484 141014.  2  1  0.0000 0.000000 3  1 (  19  21  21)->(  22  22  28   )
 312     17.488 141052.  2  1  0.0000 0.000000 3  1 (  13  21  21)->(  22  22  23   )
 313     17.495 141104.  6  1  0.0000 0.000000 2  1 (  13  21    )->(  22  29       )
 314     17.554 141580.  2  1  0.0000 0.040599 1  1 (  12        )->(  31           )
 315     17.567 141688.  6  1  0.0000 0.000000 2  1 (  17  21    )->(  22  31       )
 316     17.570 141708.  6  2  0.0000 0.000000 2  1 (  18  21    )->(  22  29       )
 317     17.583 141817.  6  1  0.0000 0.000000 2  1 (  12  21    )->(  22  27       )
 318     17.599 141944.  6  1  0.0000 0.000000 2  1 (  16  21    )->(  22  33       )
 319     17.604 141987.  2  1  0.0000 0.000000 3  1 (  17  21  21)->(  22  22  25   )
 320     17.620 142119.  6  2  0.0000 0.000000 2  1 (  13  21    )->(  22  25       )
 321     17.664 142471.  6  2  0.0000 0.000000 2  1 (  17  21    )->(  22  30       )
 322     17.690 142684.  6  2  0.0000 0.000000 2  1 (  15  21    )->(  22  28       )
 323     17.787 143459.  2  1  0.0000 0.001754 1  1 (  11        )->(  28           )
 324     17.792 143499.  6  2  0.0000 0.000000 2  1 (  19  21    )->(  22  33       )
 325     17.802 143582.  6  1  0.0000 0.000000 2  1 (  17  21    )->(  22  33       )
 326     17.805 143606.  6  2  0.0000 0.000000 2  1 (  16  21    )->(  22  28       )
 327     17.835 143848.  6  1  0.0000 0.000000 2  1 (  13  21    )->(  22  30       )
 328     17.895 144337.  2  1  0.0000 0.000000 3  1 (  19  21  21)->(  22  22  29   )
 329     17.905 144417.  6  1  0.0000 0.000000 2  1 (  11  21    )->(  22  23       )
 330     17.962 144874.  2  1  0.0000 0.000000 3  1 (  16  21  21)->(  22  22  25   )
 331     17.976 144984.  6  2  0.0000 0.000000 2  1 (  12  21    )->(  22  24       )
 332     17.981 145030.  2  1  0.0000 0.000000 3  1 (  18  21  21)->(  22  22  26   )
 333     17.992 145116.  2  1  0.0000 0.000000 1  1 (  12        )->(  32           )
 334     18.010 145261.  6  1  0.0000 0.000000 2  1 (  17  21    )->(  22  32       )
 335     18.012 145281.  6  2  0.0000 0.000000 2  1 (  18  21    )->(  22  30       )
 336     18.059 145653.  6  1  0.0000 0.000000 2  1 (  14  21    )->(  22  32       )
 337     18.078 145812.  2  1  0.0000 0.001796 1  1 (  10        )->(  26           )
 338     18.092 145923.  2  1  0.0000 0.000000 3  1 (  14  21  21)->(  22  22  24   )
 339     18.124 146184.  6  2  0.0000 0.000000 2  1 (  17  21    )->(  22  31       )
 340     18.135 146270.  6  2  0.0000 0.000000 2  1 (  14  21    )->(  22  27       )
 341     18.152 146406.  6  1  0.0000 0.000000 2  1 (  12  21    )->(  22  28       )
 342     18.173 146573.  6  2  0.0000 0.000000 2  1 (  15  21    )->(  22  29       )
 343     18.234 147068.  6  1  0.0000 0.000000 2  1 (  12  21    )->(  22  25       )
 344     18.239 147104.  2  1  0.0000 0.000000 3  1 (  19  21  21)->(  22  22  30   )
 345     18.240 147118.  6  2  0.0000 0.000000 2  1 (  16  21    )->(  22  29       )
 346     18.241 147123.  6  2  0.0000 0.000000 2  1 (  13  21    )->(  22  26       )
 347     18.257 147254.  2  1  0.0000 0.000000 1  1 (  11        )->(  29           )
 348     18.258 147264.  2  1  0.0000 0.000000 3  1 (  17  21  21)->(  22  22  27   )
 349     18.370 148161.  6  2  0.0000 0.000000 2  1 (  17  21    )->(  22  33       )
 350     18.370 148164.  2  1  0.0000 0.000000 3  1 (  15  21  21)->(  22  22  26   )
 351     18.406 148454.  6  1  0.0000 0.000000 2  1 (  14  21    )->(  22  33       )
 352     18.410 148488.  2  1  0.0000 0.015365 1  1 (  12        )->(  33           )
 353     18.420 148571.  2  1  0.0000 0.000000 3  1 (  12  21  21)->(  22  22  23   )
 354     18.423 148590.  6  2  0.0000 0.000000 2  1 (  18  21    )->(  22  31       )
 355     18.424 148602.  6  1  0.0000 0.000000 2  1 (  13  21    )->(  22  31       )
 356     18.502 149232.  6  2  0.0000 0.000000 2  1 (  15  21    )->(  22  30       )
 357     18.551 149627.  6  2  0.0000 0.000000 2  1 (  17  21    )->(  22  32       )
 358     18.608 150083.  6  2  0.0000 0.000000 2  1 (  16  21    )->(  22  30       )
 359     18.643 150364.  2  1  0.0000 0.239344 1  1 (  11        )->(  30           )
 360     18.654 150459.  6  1  0.0000 0.000000 2  1 (  12  21    )->(  22  29       )
 361     18.670 150580.  2  1  0.0000 0.000000 3  1 (  17  21  21)->(  22  22  28   )
 362     18.716 150957.  2  1  0.0000 0.000000 3  1 (  16  21  21)->(  22  22  26   )
 363     18.727 151047.  2  1  0.0000 0.000000 3  1 (  19  21  21)->(  22  22  31   )
 364     18.738 151130.  6  2  0.0000 0.000000 2  1 (  14  21    )->(  22  28       )
 365     18.743 151171.  2  1  0.0000 0.000000 1  1 (  10        )->(  27           )
 366     18.755 151268.  2  1  0.0000 0.000000 3  1 (  18  21  21)->(  22  22  27   )
 367     18.782 151485.  6  2  0.0000 0.000000 2  1 (  12  21    )->(  22  25       )
 368     18.792 151572.  2  1  0.0000 0.000000 3  1 (  14  21  21)->(  22  22  25   )
 369     18.819 151785.  6  1  0.0000 0.000000 2  1 (  11  21    )->(  22  26       )
 370     18.873 152221.  6  2  0.0000 0.000000 2  1 (  18  21    )->(  22  32       )
 371     18.875 152241.  6  2  0.0000 0.000000 2  1 (  11  21    )->(  22  23       )
 372     18.881 152288.  6  1  0.0000 0.000000 2  1 (  13  21    )->(  22  32       )
 373     18.895 152397.  2  1  0.0000 0.000000 3  1 (  13  21  21)->(  22  22  24   )
 374     18.905 152480.  6  2  0.0000 0.000000 2  1 (  13  21    )->(  22  27       )
 375     18.928 152663.  6  1  0.0000 0.000000 2  1 (  12  21    )->(  22  30       )
 376     18.961 152930.  6  2  0.0000 0.000000 2  1 (  18  21    )->(  22  33       )
 377     19.008 153311.  6  2  0.0000 0.000000 2  1 (  15  21    )->(  22  31       )
 378     19.072 153829.  6  2  0.0000 0.000000 2  1 (  14  21    )->(  22  29       )
 379     19.102 154064.  6  1  0.0000 0.000000 2  1 (  11  21    )->(  22  24       )
 380     19.130 154291.  6  2  0.0000 0.000000 2  1 (  16  21    )->(  22  31       )
 381     19.145 154417.  2  1  0.0000 0.000000 3  1 (  17  21  21)->(  22  22  29   )
 382     19.149 154444.  2  1  0.0000 0.000000 1  1 (  11        )->(  31           )
 383     19.149 154445.  2  1  0.0000 0.000000 3  1 (  19  21  21)->(  22  22  32   )
 384     19.174 154652.  6  1  0.0000 0.000000 2  1 (  13  21    )->(  22  33       )
 385     19.202 154875.  2  1  0.0000 0.000000 3  1 (  18  21  21)->(  22  22  28   )
 386     19.247 155241.  2  1  0.0000 0.000000 3  1 (  15  21  21)->(  22  22  27   )
 387     19.250 155262.  2  1  0.0000 0.000755 1  1 (  10        )->(  28           )
 388     19.267 155397.  6  1  0.0000 0.000000 2  1 (  10  21    )->(  22  23       )
 389     19.331 155914.  6  1  0.0000 0.000000 2  1 (  12  21    )->(  22  31       )
 390     19.336 155956.  6  1  0.0000 0.000000 2  1 (  11  21    )->(  22  27       )
 391     19.375 156267.  6  2  0.0000 0.000000 2  1 (  12  21    )->(  22  26       )
 392     19.382 156329.  6  2  0.0000 0.000000 2  1 (  13  21    )->(  22  28       )
 393     19.406 156517.  2  1  0.0000 0.000000 3  1 (  16  21  21)->(  22  22  27   )
 394     19.447 156851.  6  2  0.0000 0.000000 2  1 (  14  21    )->(  22  30       )
 395     19.466 157006.  6  2  0.0000 0.000000 2  1 (  15  21    )->(  22  32       )
 396     19.499 157269.  2  1  0.0000 0.000000 3  1 (  14  21  21)->(  22  22  26   )
 397     19.500 157278.  6  2  0.0000 0.000000 2  1 (  15  21    )->(  22  33       )
 398     19.511 157370.  2  1  0.0000 0.000000 3  1 (  13  21  21)->(  22  22  25   )
 399     19.532 157535.  2  1  0.0000 0.000000 3  1 (  17  21  21)->(  22  22  30   )
 400     19.572 157862.  2  1  0.0000 0.000000 3  1 (  18  21  21)->(  22  22  29   )
 401     19.579 157918.  2  1  0.0000 0.000000 3  1 (  19  21  21)->(  22  22  33   )
 402     19.693 158837.  2  1  0.0000 0.000000 3  1 (  15  21  21)->(  22  22  28   )
 403     19.717 159032.  2  1  0.0000 0.010876 1  1 (  11        )->(  32           )
 404     19.727 159110.  6  2  0.0000 0.000000 2  1 (  16  21    )->(  22  32       )
 405     19.749 159285.  2  1  0.0000 0.000000 1  1 (  10        )->(  29           )
 406     19.764 159405.  6  2  0.0000 0.000000 2  1 (  11  21    )->(  22  24       )
 407     19.774 159490.  2  1  0.0000 0.000000 3  1 (  12  21  21)->(  22  22  24   )
 408     19.775 159499.  6  1  0.0000 0.000000 2  1 (  11  21    )->(  22  28       )
 409     19.788 159600.  6  1  0.0000 0.000000 2  1 (  11  21    )->(  22  25       )
 410     19.815 159822.  2  1  0.0000 0.000000 3  1 (  16  21  21)->(  22  22  28   )
 411     19.881 160354.  6  1  0.0000 0.000000 2  1 (  12  21    )->(  22  32       )
 412     19.894 160459.  6  2  0.0000 0.000000 2  1 (  13  21    )->(  22  29       )
 413     19.908 160569.  6  2  0.0000 0.000000 2  1 (  12  21    )->(  22  27       )
 414     19.995 161267.  2  1  0.0000 0.000000 1  1 (  11        )->(  33           )
 415     20.002 161328.  2  1  0.0000 0.000000 3  1 (  17  21  21)->(  22  22  31   )
 416     20.016 161440.  2  1  0.0000 0.000000 3  1 (  18  21  21)->(  22  22  30   )
 417     20.025 161511.  6  2  0.0000 0.000000 2  1 (  16  21    )->(  22  33       )
 418     20.048 161697.  6  2  0.0000 0.000000 2  1 (  14  21    )->(  22  31       )
 419     20.127 162337.  2  1  0.0000 0.049826 1  1 (  10        )->(  30           )
 420     20.130 162362.  2  1  0.0000 0.000000 3  1 (  11  21  21)->(  22  22  23   )
 421     20.146 162485.  2  1  0.0000 0.000000 3  1 (  14  21  21)->(  22  22  27   )
 422     20.172 162698.  2  1  0.0000 0.000000 3  1 (  15  21  21)->(  22  22  29   )
 423     20.181 162774.  6  1  0.0000 0.000000 2  1 (  11  21    )->(  22  29       )
 424     20.196 162890.  6  1  0.0000 0.000000 2  1 (  10  21    )->(  22  26       )
 425     20.240 163244.  6  2  0.0000 0.000000 2  1 (  10  21    )->(  22  23       )
 426     20.243 163275.  6  2  0.0000 0.000000 2  1 (  13  21    )->(  22  30       )
 427     20.247 163306.  2  1  0.0000 0.000000 3  1 (  16  21  21)->(  22  22  29   )
 428     20.256 163373.  2  1  0.0000 0.000000 3  1 (  17  21  21)->(  22  22  33   )
 429     20.263 163430.  2  1  0.0000 0.000000 3  1 (  13  21  21)->(  22  22  26   )
 430     20.323 163920.  6  2  0.0000 0.000000 2  1 (  11  21    )->(  22  25       )
 431     20.353 164157.  6  1  0.0000 0.000000 2  1 (  12  21    )->(  22  33       )
 432     20.429 164773.  2  1  0.0000 0.000000 3  1 (  17  21  21)->(  22  22  32   )
 433     20.430 164783.  2  1  0.0000 0.000000 3  1 (  18  21  21)->(  22  22  31   )
 434     20.485 165224.  6  2  0.0000 0.000000 2  1 (  12  21    )->(  22  28       )
 435     20.502 165363.  2  1  0.0000 0.000000 3  1 (  15  21  21)->(  22  22  30   )
 436     20.525 165544.  6  1  0.0000 0.000000 2  1 (  11  21    )->(  22  30       )
 437     20.527 165559.  6  1  0.0000 0.000000 2  1 (  10  21    )->(  22  24       )
 438     20.534 165616.  6  2  0.0000 0.000000 2  1 (  14  21    )->(  22  32       )
 439     20.582 166006.  2  1  0.0000 0.000000 1  1 (  10        )->(  31           )
 440     20.616 166277.  2  1  0.0000 0.000000 3  1 (  16  21  21)->(  22  22  30   )
 441     20.672 166731.  2  1  0.0000 0.000000 3  1 (  12  21  21)->(  22  22  25   )
 442     20.691 166885.  6  2  0.0000 0.000000 2  1 (  13  21    )->(  22  31       )
 443     20.748 167348.  2  1  0.0000 0.000000 3  1 (  14  21  21)->(  22  22  28   )
 444     20.809 167836.  6  1  0.0000 0.000000 2  1 (  10  21    )->(  22  27       )
 445     20.825 167966.  6  2  0.0000 0.000000 2  1 (  14  21    )->(  22  33       )
 446     20.882 168428.  2  1  0.0000 0.000000 3  1 (  18  21  21)->(  22  22  32   )
 447     20.888 168472.  6  2  0.0000 0.000000 2  1 (  11  21    )->(  22  26       )
 448     20.920 168732.  2  1  0.0000 0.000000 3  1 (  13  21  21)->(  22  22  27   )
 449     20.960 169054.  6  2  0.0000 0.000000 2  1 (  12  21    )->(  22  29       )
 450     20.976 169184.  2  1  0.0000 0.000000 3  1 (  18  21  21)->(  22  22  33   )
 451     21.012 169476.  2  1  0.0000 0.000000 3  1 (  15  21  21)->(  22  22  31   )
 452     21.046 169745.  6  1  0.0000 0.000000 2  1 (  11  21    )->(  22  31       )
 453     21.080 170019.  2  1  0.0000 0.000000 3  1 (  14  21  21)->(  22  22  29   )
 454     21.097 170160.  2  1  0.0000 0.083638 1  1 (  10        )->(  32           )
 455     21.098 170169.  6  1  0.0000 0.000000 2  1 (  10  21    )->(  22  25       )
 456     21.142 170519.  2  1  0.0000 0.000000 3  1 (  16  21  21)->(  22  22  31   )
 457     21.175 170791.  6  1  0.0000 0.000000 2  1 (  10  21    )->(  22  28       )
 458     21.213 171091.  6  2  0.0000 0.000000 2  1 (  10  21    )->(  22  24       )
 459     21.224 171181.  2  1  0.0000 0.000000 1  1 (  10        )->(  33           )
 460     21.280 171637.  6  2  0.0000 0.000000 2  1 (  13  21    )->(  22  32       )
 461     21.315 171919.  6  2  0.0000 0.000000 2  1 (  12  21    )->(  22  30       )
 462     21.394 172555.  2  1  0.0000 0.000000 3  1 (  12  21  21)->(  22  22  26   )
 463     21.398 172584.  2  1  0.0000 0.000000 3  1 (  13  21  21)->(  22  22  28   )
 464     21.455 173048.  2  1  0.0000 0.000000 3  1 (  14  21  21)->(  22  22  30   )
 465     21.472 173184.  2  1  0.0000 0.000000 3  1 (  15  21  21)->(  22  22  32   )
 466     21.484 173279.  6  2  0.0000 0.000000 2  1 (  11  21    )->(  22  27       )
 467     21.512 173504.  2  1  0.0000 0.000000 3  1 (  15  21  21)->(  22  22  33   )
 468     21.524 173606.  2  1  0.0000 0.000000 3  1 (  10  21  21)->(  22  22  23   )
 469     21.540 173733.  6  1  0.0000 0.000000 2  1 (  11  21    )->(  22  32       )
 470     21.558 173877.  2  1  0.0000 0.000000 3  1 (  11  21  21)->(  22  22  24   )
 471     21.562 173908.  6  2  0.0000 0.000000 2  1 (  13  21    )->(  22  33       )
 472     21.641 174544.  6  2  0.0000 0.000000 2  1 (  10  21    )->(  22  25       )
 473     21.679 174856.  6  1  0.0000 0.000000 2  1 (  10  21    )->(  22  29       )
 474     21.741 175350.  2  1  0.0000 0.000000 3  1 (  16  21  21)->(  22  22  32   )
 475     21.814 175940.  6  2  0.0000 0.000000 2  1 (  12  21    )->(  22  31       )
 476     21.823 176015.  6  1  0.0000 0.000000 2  1 (  11  21    )->(  22  33       )
 477     21.906 176686.  2  1  0.0000 0.000000 3  1 (  13  21  21)->(  22  22  29   )
 478     21.920 176801.  2  1  0.0000 0.000000 3  1 (  12  21  21)->(  22  22  27   )
 479     22.012 177535.  6  1  0.0000 0.000000 2  1 (  10  21    )->(  22  30       )
 480     22.044 177799.  2  1  0.0000 0.000000 3  1 (  16  21  21)->(  22  22  33   )
 481     22.047 177823.  6  2  0.0000 0.000000 2  1 (  11  21    )->(  22  28       )
 482     22.060 177927.  2  1  0.0000 0.000000 3  1 (  14  21  21)->(  22  22  31   )
 483     22.214 179170.  2  1  0.0000 0.000000 3  1 (  11  21  21)->(  22  22  25   )
 484     22.254 179489.  6  2  0.0000 0.000000 2  1 (  12  21    )->(  22  32       )
 485     22.256 179508.  2  1  0.0000 0.000000 3  1 (  13  21  21)->(  22  22  30   )
 486     22.343 180209.  6  2  0.0000 0.000000 2  1 (  10  21    )->(  22  26       )
 487     22.477 181290.  6  1  0.0000 0.000000 2  1 (  10  21    )->(  22  31       )
 488     22.498 181460.  2  1  0.0000 0.000000 3  1 (  12  21  21)->(  22  22  28   )
 489     22.514 181591.  6  2  0.0000 0.000000 2  1 (  11  21    )->(  22  29       )
 490     22.548 181860.  2  1  0.0000 0.000000 3  1 (  14  21  21)->(  22  22  32   )
 491     22.678 182909.  6  2  0.0000 0.000000 2  1 (  12  21    )->(  22  33       )
 492     22.708 183151.  2  1  0.0000 0.000000 3  1 (  13  21  21)->(  22  22  31   )
 493     22.845 184257.  2  1  0.0000 0.000000 3  1 (  14  21  21)->(  22  22  33   )
 494     22.901 184707.  6  2  0.0000 0.000000 2  1 (  11  21    )->(  22  30       )
 495     22.909 184776.  2  1  0.0000 0.000000 3  1 (  11  21  21)->(  22  22  26   )
 496     22.970 185262.  2  1  0.0000 0.000000 3  1 (  12  21  21)->(  22  22  29   )
 497     23.001 185512.  6  2  0.0000 0.000000 2  1 (  10  21    )->(  22  27       )
 498     23.009 185578.  2  1  0.0000 0.000000 3  1 (  10  21  21)->(  22  22  24   )
 499     23.074 186109.  6  1  0.0000 0.000000 2  1 (  10  21    )->(  22  32       )
 500     23.276 187733.  6  1  0.0000 0.000000 2  1 (  10  21    )->(  22  33       )

 Depression of ground-state after CI=      -8657. cm**-1 Energy= -1399.9520161 eV
 Dipole moment=  0.000000 -0.000000 -0.000000 tot=  0.000000 Debyes


  CI trans.  energy frequency wavelength oscillator ---------polarization---------    dipole   ------components----- 
 st.  symm.    eV      cm-1       nm      strength       x          y         z       moment     x       y       z 

   2      4.6680976    37651.    265.60  0.000000                                   0.000000   0.000   0.000   0.000
   3      4.8897203    39438.    253.56  1.130960  -0.039398   0.999224  -0.000000  0.000000  -0.000  -0.000   0.000
   4      5.5190447    44514.    224.65  0.000256   0.675714   0.737164  -0.000000  0.000000   0.000  -0.000  -0.000
   5      6.3306584    51060.    195.85  0.000000                                   0.000000   0.000  -0.000  -0.000
   6      6.5593785    52905.    189.02  0.000006  -0.000000   0.000000   1.000000  0.000000   0.000   0.000   0.000
   7      6.7091882    54113.    184.80  0.000000                                   0.000000  -0.000  -0.000  -0.000
   8      7.0189341    56612.    176.64  0.000000                                   0.000000  -0.000  -0.000  -0.000
   9      7.1031027    57291.    174.55  0.000000                                   0.000000   0.000  -0.000  -0.000
  10      7.4831809    60356.    165.68  0.001264   0.000000  -0.000000  -1.000000  0.000000  -0.000  -0.000  -0.000
  11      7.8122338    63010.    158.70  0.000000                                   0.000000  -0.000   0.000   0.000
  12      7.8158112    63039.    158.63  0.039909  -0.055129   0.998479   0.000000  0.000000  -0.000  -0.000  -0.000
  13      8.0732740    65116.    153.57  0.166757  -0.000000   0.000000  -1.000000  0.000000  -0.000  -0.000   0.000
  14      8.0998879    65330.    153.07  0.000619  -0.000000   0.000000   1.000000  0.000000   0.000  -0.000  -0.000
  15      8.1133148    65438.    152.82  0.233472   0.546969  -0.837153  -0.000000  0.000000   0.000   0.000   0.000
  16      8.5025966    68578.    145.82  0.000000                                   0.000000  -0.000   0.000  -0.000
  17      8.5436548    68909.    145.12  0.000000                                   0.000000   0.000  -0.000   0.000
  18      8.5490481    68953.    145.03  0.015832  -0.136541  -0.990634   0.000000  0.000000   0.000  -0.000  -0.000
  19      8.5836466    69232.    144.44  0.000000                                   0.000000  -0.000   0.000  -0.000
  20      8.5995095    69360.    144.18  0.000123  -0.000000   0.000000  -1.000000  0.000000   0.000  -0.000   0.000
  21      8.6948695    70129.    142.59  0.000000                                   0.000000  -0.000  -0.000  -0.000
  22      8.8286535    71208.    140.43  0.001090  -0.000000   0.000000   1.000000  0.000000   0.000  -0.000  -0.000
  23      9.0093229    72665.    137.62  0.011527   0.421596  -0.906784  -0.000000  0.000000   0.000   0.000  -0.000
  24      9.0703627    73158.    136.69  0.000000                                   0.000000  -0.000  -0.000   0.000
  25      9.0925871    73337.    136.36  0.000168   0.000000  -0.000000   1.000000  0.000000   0.000  -0.000  -0.000
  26      9.2779356    74832.    133.63  0.000000                                   0.000000  -0.000   0.000  -0.000
  27      9.4900572    76543.    130.65  0.007456  -0.000000   0.000000  -1.000000  0.000000   0.000   0.000   0.000
  28      9.5275682    76845.    130.13  0.000000                                   0.000000  -0.000  -0.000  -0.000
  29      9.5466345    76999.    129.87  0.000000                                   0.000000   0.000   0.000  -0.000
  30      9.6124574    77530.    128.98  0.000000                                   0.000000   0.000   0.000  -0.000
  31      9.6957655    78202.    127.87  0.000000                                   0.000000   0.000  -0.000   0.000
  32      9.7100052    78317.    127.69  0.026929  -0.282624   0.959231  -0.000000  0.000000  -0.000  -0.000   0.000
  33      9.8557163    79492.    125.80  0.000000                                   0.000000   0.000   0.000   0.000
  34      9.9389427    80163.    124.75  0.000126   0.000000  -0.000000  -1.000000  0.000000   0.000  -0.000  -0.000
  35     10.0022468    80674.    123.96  0.000000                                   0.000000  -0.000  -0.000  -0.000
  36     10.1010835    81471.    122.74  0.000550   0.000000  -0.000000  -1.000000  0.000000   0.000  -0.000  -0.000
  37     10.2411136    82600.    121.06  0.000000                                   0.000000   0.000   0.000   0.000
  38     10.3671032    83617.    119.59  0.000000                                   0.000000   0.000   0.000  -0.000
  39     10.4346306    84161.    118.82  0.136408  -0.714414   0.699723  -0.000000  0.000000   0.000   0.000   0.000
  40     10.5399864    85011.    117.63  0.000975   0.000000  -0.000000   1.000000  0.000000   0.000  -0.000   0.000
  41     10.5885410    85403.    117.09  0.014633  -0.000000  -0.000000   1.000000  0.000000  -0.000  -0.000  -0.000
  42     10.6133019    85602.    116.82  0.013668   0.000000   0.000000  -1.000000  0.000000   0.000   0.000  -0.000
  43     10.6227166    85678.    116.72  0.000000                                   0.000000  -0.000   0.000  -0.000
  44     10.7892467    87021.    114.91  0.020323   0.924993  -0.379984   0.000000  0.000000  -0.000  -0.000   0.000
  45     10.8151243    87230.    114.64  0.000000                                   0.000000  -0.000  -0.000  -0.000
  46     10.9149496    88035.    113.59  0.044397   0.000000  -0.000000  -1.000000  0.000000  -0.000   0.000  -0.000
  47     10.9567030    88372.    113.16  0.000000                                   0.000000   0.000  -0.000  -0.000
  48     10.9659634    88447.    113.06  0.000000                                   0.000000  -0.000  -0.000   0.000
  49     11.0166403    88855.    112.54  0.000000                                   0.000000   0.000   0.000   0.000
  50     11.3146422    91259.    109.58  0.000211  -0.000000   0.000000  -1.000000  0.000000   0.000   0.000   0.000
 
 Polarizability (au  ) xx=    4.40 xy=   -9.57 yy=  114.63 xz=   -0.00 yz=   -0.00 zz=    7.40
 Polarizability (A**3) xx=    0.65 xy=   -1.42 yy=   16.99 xz=   -0.00 yz=   -0.00 zz=    1.10
 
 
 Major CI contributions to CI states
 
State    1  0.0000     CI coeff  CI percent
    Config       1   0.92336963  0.85261147
    Config       6  -0.27185071  0.07390281
    Config      44  -0.11288867  0.01274385
    Config      85   0.13615963  0.01853945
[...]
    Config      57  -0.14972850  0.02241862
    Config      58   0.12867459  0.01655715
    Config      63  -0.13534508  0.01831829
    Config      73   0.12146150  0.01475290
    Config     112  -0.16112170  0.02596020
 Total coeff printed             0.91496301
  
State   31  9.6958     CI coeff  CI percent
    Config      17  -0.14647280  0.02145428
    Config      19  -0.11009545  0.01212101
    Config      20  -0.11838847  0.01401583
    Config      25  -0.16269788  0.02647060
    Config      30  -0.44972391  0.20225160
    Config      31  -0.21868405  0.04782271
    Config      46   0.11348332  0.01287846
    Config      48   0.29574259  0.08746368
    Config      50   0.14113653  0.01991952
    Config      51  -0.48800285  0.23814678
    Config      54   0.20989891  0.04405755
    Config      55  -0.25395767  0.06449450
    Config      58   0.32227785  0.10386301
    Config     119   0.11854448  0.01405279
 Total coeff printed             0.90901233
  
State   32  9.7100     CI coeff  CI percent
    Config       7  -0.15211200  0.02313806
    Config      13  -0.31569673  0.09966443
    Config      22   0.62656742  0.39258674
    Config      37   0.36739771  0.13498108
    Config      40   0.18453742  0.03405406
    Config      42  -0.11929187  0.01423055
    Config      70   0.13943372  0.01944176
    Config      75  -0.25520531  0.06512975
    Config      86  -0.15744048  0.02478750
    Config     106  -0.30967964  0.09590148
    Config     131   0.16428958  0.02699106
    Config     150  -0.14027597  0.01967735
 Total coeff printed             0.95058382
  
State   33  9.8557     CI coeff  CI percent
    Config       3  -0.17721372  0.03140470
    Config       4   0.12812728  0.01641660
    Config      18   0.13032686  0.01698509
    Config      21   0.54862829  0.30099300
    Config      27   0.56927200  0.32407061
    Config      33   0.30846763  0.09515228
    Config      61  -0.11497612  0.01321951
    Config      81  -0.11135215  0.01239930
    Config      85   0.20980160  0.04401671
    Config     116  -0.20315362  0.04127139
    Config     122  -0.18826435  0.03544347
    Config     185   0.19183878  0.03680212
 Total coeff printed             0.96817478
  
State   34  9.9389     CI coeff  CI percent
    Config      23  -0.23818874  0.05673388
    Config      24  -0.12270060  0.01505544
    Config      34  -0.74103362  0.54913083
    Config      53   0.41090069  0.16883938
    Config      64  -0.21788393  0.04747341
    Config      78   0.15495260  0.02401031
    Config      79  -0.14300142  0.02044941
    Config     100  -0.14787073  0.02186575
    Config     123   0.13702438  0.01877568
    Config     143   0.13043287  0.01701273
 Total coeff printed             0.93934681
  
State   35 10.0022     CI coeff  CI percent
    Config      19   0.27838108  0.07749603
    Config      30   0.28900347  0.08352301
    Config      35  -0.27578435  0.07605701
    Config      38   0.46093568  0.21246170
    Config      50  -0.42930751  0.18430494
    Config      51  -0.17276340  0.02984719
    Config      54  -0.10614440  0.01126663
    Config      55  -0.36352517  0.13215055
    Config      58   0.17779142  0.03160979
    Config      60  -0.10199146  0.01040226
    Config      90  -0.18687545  0.03492243
    Config     117   0.20438394  0.04177279
 Total coeff printed             0.92581434
  
State   36 10.1011     CI coeff  CI percent
    Config      29   0.49008666  0.24018494
    Config      39  -0.25639701  0.06573943
    Config      45   0.55921173  0.31271776
    Config      59  -0.12978485  0.01684411
    Config      68   0.32542453  0.10590113
    Config      69   0.17507914  0.03065271
    Config      71  -0.18343970  0.03365012
    Config      91  -0.19249135  0.03705292
    Config      97  -0.20227244  0.04091414
    Config     108   0.10025159  0.01005038
    Config     128  -0.11846884  0.01403487
    Config     144   0.11649937  0.01357210
    Config     259  -0.10204140  0.01041245
 Total coeff printed             0.93172704
  
State   37 10.2411     CI coeff  CI percent
    Config       9  -0.21870356  0.04783125
    Config      17  -0.27745780  0.07698283
    Config      25   0.43178662  0.18643968
    Config      28  -0.67988128  0.46223855
    Config      46  -0.13315588  0.01773049
    Config      52  -0.13978449  0.01953970
    Config      63  -0.15091476  0.02277527
    Config      92   0.11942608  0.01426259
    Config     112   0.22223669  0.04938915
    Config     156   0.10027456  0.01005499
 Total coeff printed             0.90724449
  
State   38 10.3671     CI coeff  CI percent
    Config      20   0.26734376  0.07147269
    Config      28   0.12889431  0.01661374
    Config      43  -0.66905339  0.44763245
    Config      57  -0.15234712  0.02320964
    Config      62   0.42863906  0.18373144
    Config      73  -0.22227778  0.04940741
    Config      89  -0.12374312  0.01531236
    Config      92   0.18438167  0.03399660
    Config     113   0.17849724  0.03186127
    Config     141  -0.15141993  0.02292799
 Total coeff printed             0.89616559
  
State   39 10.4346     CI coeff  CI percent
    Config      22  -0.14739280  0.02172464
    Config      40   0.42940514  0.18438877
    Config      42  -0.78920632  0.62284661
    Config      65   0.12322576  0.01518459
    Config      66  -0.11134334  0.01239734
    Config     102  -0.11757725  0.01382441
    Config     106   0.21281353  0.04528960
    Config     148   0.10404239  0.01082482
    Config     235   0.10516070  0.01105877
 Total coeff printed             0.93753955
  
State   40 10.5400     CI coeff  CI percent
    Config      10   0.11826488  0.01398658
    Config      23  -0.17053159  0.02908102
    Config      29   0.21061187  0.04435736
    Config      36  -0.26813124  0.07189436
    Config      39  -0.26074213  0.06798646
    Config      45  -0.30401127  0.09242285
    Config      59   0.39124410  0.15307195
    Config      68   0.28564767  0.08159459
    Config      69  -0.24884088  0.06192178
    Config      76  -0.31840361  0.10138086
    Config      91   0.21899561  0.04795908
    Config      99   0.15716292  0.02470018
    Config     108  -0.13576771  0.01843287
    Config     138   0.14116828  0.01992848
    Config     144   0.12473411  0.01555860
    Config     155   0.13218657  0.01747329
 Total coeff printed             0.86175032
  
State   41 10.5885     CI coeff  CI percent
    Config       5   0.11144494  0.01241997
    Config      10  -0.25873317  0.06694285
    Config      23   0.14743415  0.02173683
    Config      36   0.54428114  0.29624196
    Config      41   0.37516624  0.14074971
    Config      45  -0.12447782  0.01549473
    Config      49  -0.27858943  0.07761207
    Config      53   0.11372320  0.01293297
    Config      59   0.17497440  0.03061604
    Config      69  -0.11378748  0.01294759
    Config      72   0.11424776  0.01305255
    Config      76  -0.12384978  0.01533877
    Config      78   0.22724512  0.05164035
    Config      79   0.20409478  0.04165468
    Config      99  -0.18535173  0.03435526
    Config     101   0.12040560  0.01449751
    Config     134  -0.14866355  0.02210085
 Total coeff printed             0.88033469
  
State   42 10.6133     CI coeff  CI percent
    Config       5   0.12726178  0.01619556
    Config      23   0.35477428  0.12586479
    Config      24  -0.26708039  0.07133194
    Config      29   0.10343449  0.01069869
    Config      36   0.25838866  0.06676470
    Config      41  -0.44859350  0.20123613
    Config      49   0.24791630  0.06146249
    Config      68   0.10700592  0.01145027
    Config      72  -0.27992946  0.07836051
    Config      78  -0.19225217  0.03696090
    Config      79  -0.18260766  0.03334556
    Config      99  -0.29962312  0.08977402
    Config     101  -0.14754001  0.02176805
    Config     123   0.13260677  0.01758456
    Config     134  -0.11374455  0.01293782
    Config     143  -0.11382726  0.01295665
    Config     172  -0.10808212  0.01168175
    Config     176   0.11228853  0.01260871
 Total coeff printed             0.89298308
  
State   43 10.6227     CI coeff  CI percent
    Config      35   0.47409433  0.22476544
    Config      38   0.47315307  0.22387383
    Config      48  -0.18432135  0.03397436
    Config      50   0.30647821  0.09392889
    Config      54  -0.12641344  0.01598036
    Config      60  -0.48262364  0.23292558
    Config      90  -0.10696230  0.01144093
    Config      94  -0.13862927  0.01921807
    Config     135  -0.10917716  0.01191965
    Config     191   0.18012743  0.03244589
 Total coeff printed             0.90047302
  
State   44 10.7892     CI coeff  CI percent
    Config      26   0.12004872  0.01441170
    Config      40   0.77262261  0.59694570
    Config      42   0.33962299  0.11534378
    Config      65  -0.24922168  0.06211145
    Config      66   0.12483417  0.01558357
    Config      70  -0.10087952  0.01017668
    Config      77   0.14752420  0.02176339
    Config     131  -0.27455463  0.07538024
    Config     179  -0.12172980  0.01481815
 Total coeff printed             0.92653465
  
State   45 10.8151     CI coeff  CI percent
    Config      48  -0.64862562  0.42071520
    Config      50  -0.19601154  0.03842052
    Config      54   0.36416050  0.13261287
    Config      55   0.10126780  0.01025517
    Config      58   0.30415881  0.09251258
    Config      60   0.15079043  0.02273775
    Config      88  -0.14135241  0.01998051
    Config      90  -0.16207675  0.02626887
    Config      94  -0.24040161  0.05779293
    Config     119   0.19624021  0.03851022
    Config     135  -0.12470415  0.01555113
    Config     149  -0.10207148  0.01041859
    Config     217   0.17205852  0.02960413
    Config     278   0.10547226  0.01112440
 Total coeff printed             0.92650487
  
State   46 10.9149     CI coeff  CI percent
    Config      16  -0.10342282  0.01069628
    Config      23  -0.12874791  0.01657602
    Config      24  -0.11140629  0.01241136
    Config      36   0.12381812  0.01533093
    Config      41   0.56695206  0.32143464
    Config      49   0.49191023  0.24197567
    Config      64   0.16646434  0.02771038
    Config      72  -0.39658474  0.15727945
    Config      78   0.11546498  0.01333216
    Config      79  -0.12804894  0.01639653
    Config      99   0.13695753  0.01875736
    Config     103  -0.18931842  0.03584146
    Config     123   0.15664645  0.02453811
    Config     176   0.10369493  0.01075264
 Total coeff printed             0.92303300
  
State   47 10.9567     CI coeff  CI percent
    Config       9   0.15202451  0.02311145
    Config      14  -0.14919931  0.02226043
    Config      31  -0.50778509  0.25784570
    Config      43   0.17085638  0.02919190
    Config      46  -0.43235225  0.18692847
    Config      52  -0.24323715  0.05916431
    Config      57  -0.11073800  0.01226290
    Config      62   0.15012998  0.02253901
    Config      63  -0.18129168  0.03286667
    Config      73  -0.10189329  0.01038224
    Config      80   0.17411816  0.03031713
    Config     110  -0.13526113  0.01829557
    Config     112  -0.36291951  0.13171057
    Config     129  -0.18120622  0.03283569
    Config     141  -0.12890555  0.01661664
    Config     222  -0.10102690  0.01020643
 Total coeff printed             0.89653515
  
State   48 10.9660     CI coeff  CI percent
    Config      47  -0.85135813  0.72481067
    Config      61   0.34394003  0.11829475
    Config      83   0.16573938  0.02746954
    Config     122   0.13981724  0.01954886
    Config     256   0.11485128  0.01319082
 Total coeff printed             0.90331463
  
State   49 11.0166     CI coeff  CI percent
    Config      14  -0.13550923  0.01836275
    Config      25   0.16862759  0.02843526
    Config      43  -0.10790245  0.01164294
    Config      46  -0.49857888  0.24858090
    Config      52   0.53359804  0.28472687
    Config      57   0.37830272  0.14311294
    Config      62   0.27590916  0.07612587
    Config      63   0.16194024  0.02622464
    Config      73   0.13668252  0.01868211
    Config      80  -0.13137649  0.01725978
    Config     110   0.13912177  0.01935487
    Config     154  -0.12815371  0.01642337
 Total coeff printed             0.90893231
  
State   50 11.3146     CI coeff  CI percent
    Config      11  -0.10135589  0.01027302
    Config      15  -0.22018168  0.04847997
    Config      39  -0.49215892  0.24222041
    Config      45  -0.25715228  0.06612729
    Config      59  -0.30555230  0.09336221
    Config      68   0.23614612  0.05576499
    Config      69  -0.10678424  0.01140287
    Config      71   0.51984686  0.27024076
    Config      76   0.15912812  0.02532176
    Config      91  -0.18637401  0.03473527
    Config     108   0.20831214  0.04339395
    Config     128   0.11281838  0.01272799
    Config     162   0.10993166  0.01208497
 Total coeff printed             0.92613547
  

 -------------------------------------------------------------------------------
 INDO MRCI C.I.=(24,12) C.A.S.=(2,1) MAXCI=500 WRTCI=50 WRTCONF=0.1
 all-trans-octatetraene



     NO PARAMETERS MARKED FOR OPTIMIZATION, SO 1SCF WAS USED  
     SCF FIELD WAS ACHIEVED                                   


                              INDO CALCULATION
                                                       MOPAC2016 (Version: 20.173L)
                                                       Wed Oct 11 10:17:54 2023




          FINAL HEAT OF FORMATION =     -30370.74200 KCAL/MOL = -127071.18454 KJ/MOL


          TOTAL ENERGY            =      -1398.87867 EV
          ELECTRONIC ENERGY       =      -4434.97073 EV  POINT GROUP:     C2h 
          CORE-CORE REPULSION     =       3036.09207 EV
          COSMO AREA              =        178.91 SQUARE ANGSTROMS
          COSMO VOLUME            =        165.66 CUBIC ANGSTROMS

          IONIZATION POTENTIAL    =          7.425806 EV
          HOMO LUMO ENERGIES (EV) =         -7.426 -0.455
          NO. OF FILLED LEVELS    =         21
          MOLECULAR WEIGHT        =        106.1670

          MOLECULAR DIMENSIONS (Angstroms)

            Atom       Atom       Distance
            H    18    H     9    10.50130
            H    17    H    10     3.17092
            C     1    C     2     0.00000


          SCF CALCULATIONS        =          1
 
          WALL-CLOCK TIME         =          4.777 SECONDS
          COMPUTATION TIME        =          9.047 SECONDS




   ATOM   CHEMICAL          X               Y               Z
  NUMBER   SYMBOL      (ANGSTROMS)     (ANGSTROMS)     (ANGSTROMS)
 
     1       C          0.13642800      4.31261200      0.00000000   
     2       C          0.65084500      3.07095700      0.00000000   
     3       C         -0.13642800      1.85596900      0.00000000   
     4       C          0.38926300      0.60631000      0.00000000   
     5       C         -0.38926300     -0.60631000      0.00000000   
     6       C          0.13642800     -1.85596900      0.00000000   
     7       C         -0.65084500     -3.07095700      0.00000000   
     8       C         -0.13642800     -4.31261200      0.00000000   
     9       H          0.77042500      5.19381900      0.00000000   
    10       H         -0.93776100      4.48341300      0.00000000   
    11       H          1.73423700      2.94537900      0.00000000   
    12       H         -1.22106200      1.97279000      0.00000000   
    13       H          1.47457700      0.49428800      0.00000000   
    14       H         -1.47457700     -0.49428800      0.00000000   
    15       H          1.22106200     -1.97279000      0.00000000   
    16       H         -1.73423700     -2.94537900      0.00000000   
    17       H          0.93776100     -4.48341300      0.00000000   
    18       H         -0.77042500     -5.19381900      0.00000000   

                             CARTESIAN COORDINATES

   1    C        0.136428000     4.312612000     0.000000000
   2    C        0.650845000     3.070957000     0.000000000
   3    C       -0.136428000     1.855969000     0.000000000
   4    C        0.389263000     0.606310000     0.000000000
   5    C       -0.389263000    -0.606310000     0.000000000
   6    C        0.136428000    -1.855969000     0.000000000
   7    C       -0.650845000    -3.070957000     0.000000000
   8    C       -0.136428000    -4.312612000     0.000000000
   9    H        0.770425000     5.193819000     0.000000000
  10    H       -0.937761000     4.483413000     0.000000000
  11    H        1.734237000     2.945379000     0.000000000
  12    H       -1.221062000     1.972790000     0.000000000
  13    H        1.474577000     0.494288000     0.000000000
  14    H       -1.474577000    -0.494288000     0.000000000
  15    H        1.221062000    -1.972790000     0.000000000
  16    H       -1.734237000    -2.945379000     0.000000000
  17    H        0.937761000    -4.483413000     0.000000000
  18    H       -0.770425000    -5.193819000     0.000000000


           Empirical Formula: C8 H10  =    18 atoms



      MOLECULAR POINT GROUP   :   C2h 


                  EIGENVALUES  
 -40.18409 -38.11453 -35.02602 -31.26250 -26.60496 -24.72015 -22.86493 -22.65749
 -20.09911 -18.94038 -17.37719 -15.84646 -14.72784 -13.99746 -13.28861 -13.16947
 -12.70067 -12.63575 -11.37526  -9.49409  -7.42581  -0.45492   1.09247   2.22090
   2.85863   3.02519   3.53446   4.03389   4.45343   4.82278   5.36732   5.94660
   6.34063   7.61307   7.63118   8.34458   8.72193   9.01224   9.66639  10.57406
  12.22329  13.98093


              NET ATOMIC CHARGES AND DIPOLE CONTRIBUTIONS

  ATOM NO.   TYPE          CHARGE      No. of ELECS.   s-Pop       p-Pop       
    1          C          -0.068530        4.0685     1.11232     2.95621
    2          C          -0.014271        4.0143     1.08070     2.93357
    3          C          -0.024494        4.0245     1.08495     2.93954
    4          C          -0.023249        4.0232     1.08499     2.93826
    5          C          -0.023249        4.0232     1.08499     2.93826
    6          C          -0.024494        4.0245     1.08495     2.93954
    7          C          -0.014271        4.0143     1.08070     2.93357
    8          C          -0.068530        4.0685     1.11232     2.95621
    9          H           0.023504        0.9765     0.97650
   10          H           0.026372        0.9736     0.97363
   11          H           0.026948        0.9731     0.97305
   12          H           0.027216        0.9728     0.97278
   13          H           0.026504        0.9735     0.97350
   14          H           0.026504        0.9735     0.97350
   15          H           0.027216        0.9728     0.97278
   16          H           0.026948        0.9731     0.97305
   17          H           0.026372        0.9736     0.97363
   18          H           0.023504        0.9765     0.97650
 DIPOLE           X         Y         Z       TOTAL
 POINT-CHG.     0.000    -0.000     0.000     0.000
 HYBRID         0.000     0.000    -0.000     0.000
 SUM            0.000    -0.000    -0.000     0.000


          ATOMIC ORBITAL ELECTRON POPULATIONS

     Atom    s        px        py        pz   
    1  C   1.11232   0.96406   0.97212   1.02003
    2  C   1.08070   0.96307   0.98799   0.98251
    3  C   1.08495   0.96147   0.97725   1.00082
    4  C   1.08499   0.96224   0.97939   0.99663
    5  C   1.08499   0.96224   0.97939   0.99663
    6  C   1.08495   0.96147   0.97725   1.00082
    7  C   1.08070   0.96307   0.98799   0.98251
    8  C   1.11232   0.96406   0.97212   1.02003
    9  H   0.97650
   10  H   0.97363
   11  H   0.97305
   12  H   0.97278
   13  H   0.97350
   14  H   0.97350
   15  H   0.97278
   16  H   0.97305
   17  H   0.97363
   18  H   0.97650

 **********************
 *                    *
 * JOB ENDED NORMALLY *
 *                    *
 **********************



 TOTAL JOB TIME:             4.80 SECONDS

 == MOPAC DONE ==
